/*--------------------------------*- C++ -*----------------------------------*\
| =========                 |                                                 |
| \\      /  F ield         | foam-extend: Open Source CFD                    |
|  \\    /   O peration     | Version:     4.0                                |
|   \\  /    A nd           | Web:         http://www.foam-extend.org         |
|    \\/     M anipulation  |                                                 |
\*---------------------------------------------------------------------------*/
FoamFile
{
    version     2.0;
    format      ascii;
    class       volScalarField;
    location    "18";
    object      H+;
}
// * * * * * * * * * * * * * * * * * * * * * * * * * * * * * * * * * * * * * //

dimensions      [0 -3 0 0 1 0 0];

internalField   nonuniform List<scalar> 
15810
(
0.002300030399
0.003566474982
0.002513108882
0.00371681618
0.004926973458
0.004117782141
0.005195344029
0.005534090667
0.005766673462
0.005920170946
0.0024281482
0.003737523012
0.002672145779
0.003921283178
0.005139948671
0.004362492844
0.005419610795
0.005712421696
0.0057593054
0.005930406318
0.006043478456
0.002539730519
0.003885631078
0.002813354319
0.004095061958
0.005251481156
0.004560249056
0.005530308598
0.005799316366
0.005854024324
0.006002709004
0.006098331158
0.002498568102
0.003829095215
0.002760363609
0.004027843745
0.005139962775
0.004476674782
0.005419559777
0.005712390148
0.005759306341
0.005930405573
0.006043477174
0.002354855377
0.003635359326
0.002579533527
0.003799409822
0.004926972986
0.004201197768
0.005195308037
0.005534065231
0.005545399477
0.005766672633
0.005920168276
0.001938931711
0.001728858365
0.002314310648
0.00200878702
0.001775029995
0.002361164981
0.001766183367
0.001858217727
0.002375762071
0.001811294424
0.001907788072
0.002435950579
0.001989141605
0.002181412733
0.002714901135
0.002042944049
0.002241814293
0.002782926672
0.002075304422
0.001830186201
0.002421749021
0.002133160099
0.001882409304
0.002483392615
0.001870531758
0.001974533263
0.002516805151
0.001926487195
0.002038209935
0.002594736876
0.002116847582
0.002327401263
0.002888115717
0.002189943762
0.002416339166
0.002990762054
0.002165291228
0.001912190187
0.002518584571
0.002165286289
0.001912179924
0.002518578614
0.001959184884
0.002075869737
0.002640309583
0.001959143204
0.002075894651
0.002640231251
0.002232864356
0.002466521208
0.00305103384
0.00223288879
0.002466522697
0.003051050801
0.002133152154
0.001882390877
0.002483385377
0.002075303964
0.001830174042
0.002421748769
0.001926351783
0.002038245098
0.002594447983
0.001870363184
0.001974534269
0.00251641493
0.002190030917
0.002416350754
0.002990832494
0.002116959325
0.002327421722
0.002888216833
0.002008798272
0.001775019802
0.002361167925
0.001938948604
0.001728850261
0.002314315024
0.001811190458
0.001907770236
0.00243571574
0.001766133437
0.001858196407
0.002375673333
0.002043009347
0.002241828148
0.002782989259
0.001989167899
0.002181421482
0.002714927929
0.002993320782
0.003042146049
0.003594565053
0.002354856902
0.003051728658
0.003106324197
0.003674606078
0.004001202358
0.00411568465
0.00448311703
0.003635348635
0.004095377271
0.00417925192
0.004554122006
0.003162828822
0.00335630569
0.0038606538
0.002579557296
0.003232803764
0.003428473379
0.003953873756
0.004144059344
0.00435187249
0.004709750523
0.00379952306
0.004257731189
0.004425280686
0.004793513927
0.003635941617
0.003703869811
0.004469728781
0.004788949455
0.005074313252
0.004201205141
0.004591650097
0.004853028261
0.005150636762
0.003131874788
0.003199565673
0.003767527244
0.002498574446
0.003217395191
0.003290787726
0.003878521706
0.004184016917
0.00432175884
0.004690531296
0.003829083063
0.004298840183
0.004407464953
0.00477777441
0.003331346986
0.003549351453
0.004068779446
0.002760331711
0.003432942184
0.00365841734
0.004195353864
0.004359434261
0.004587292641
0.004944417156
0.004027962306
0.004494499274
0.004684051625
0.005042034157
0.00384821655
0.003969930119
0.004715344863
0.005052365144
0.005320758238
0.004476667937
0.004859149378
0.005140188752
0.005412747496
0.003263927134
0.003344834915
0.003931052026
0.002539720478
0.003263924991
0.00334482958
0.003931050274
0.004347430834
0.004481160359
0.004848569714
0.003885632239
0.004347429516
0.004481161792
0.004848571388
0.003490369738
0.003727629596
0.004260070673
0.002813383671
0.0034901826
0.003727669841
0.00425998725
0.004549164916
0.004766802225
0.005116722289
0.004095026818
0.004549162421
0.004766859046
0.005116764568
0.004047562112
0.004047563802
0.004924170305
0.005232988824
0.005492676833
0.004560256071
0.004924127178
0.005232989506
0.005492672307
0.003217405365
0.003290784622
0.003878527627
0.002428158441
0.003131895672
0.003199563584
0.003767537838
0.004298814278
0.00440747818
0.00477777407
0.003737538625
0.004183985833
0.004321772766
0.00469052532
0.003432281184
0.003658511115
0.004195031884
0.002672130373
0.003330463883
0.003549441839
0.004068359621
0.004494487863
0.004684274464
0.005042164851
0.003921090482
0.00435942613
0.004587647047
0.004944641417
0.003969942397
0.003848237551
0.004858958506
0.005140184164
0.005412723137
0.004362489718
0.00471506122
0.005052354615
0.005320720381
0.003051739618
0.003106321665
0.003674615906
0.002300014958
0.002993321807
0.003042138017
0.003594570856
0.004095361512
0.004179259094
0.004554114737
0.003566481821
0.004001200726
0.004115689822
0.004483111195
0.003232264044
0.003428524444
0.00395362819
0.002513095519
0.003162652693
0.003356316904
0.003860577269
0.004257734536
0.004425506437
0.004793677927
0.00371679142
0.004144073928
0.004351948218
0.00470980521
0.003703885195
0.003635951743
0.004591507191
0.004853020824
0.005150612714
0.004117775933
0.004469685747
0.00478894215
0.005074309559
0.00449563723
0.004719430419
0.005115752018
0.005321497515
0.005576886019
0.005752298107
0.005894388768
0.004647974258
0.004901787956
0.005273789139
0.005495024262
0.005717522209
0.005890660961
0.006001517312
0.004736748341
0.005004719248
0.005363639305
0.005587294457
0.005792926433
0.00595870176
0.006055116086
0.004648307363
0.004901910502
0.005273796029
0.005495021267
0.005717511109
0.005890644598
0.006001508419
0.004495942464
0.004719530511
0.005115728304
0.005321485271
0.005576863883
0.005752280933
0.005894376483
0.004837940189
0.005367315429
0.005737982645
0.005985399848
0.00498109696
0.005503024808
0.005851937046
0.006069526165
0.00506401907
0.005580550259
0.005914064708
0.00611270614
0.004981180917
0.005503015712
0.005851926998
0.006069520763
0.004837992068
0.005367287655
0.005737964092
0.005985390969
0.002584736804
0.003954982792
0.001635893776
0.003100139952
0.003830349291
0.002705003216
0.004111424132
0.001674714688
0.003190725921
0.00390026008
0.002802510568
0.004201954023
0.0016604885
0.003167935326
0.003830777631
0.002768514548
0.004112419592
0.00161134504
0.003061669113
0.003711332024
0.002645127591
0.003955861565
0.001621231922
0.001654242273
0.002148219658
0.002652386147
0.002189791368
0.002698163589
0.001249230425
0.001692981834
0.001263662838
0.001729336763
0.002241777338
0.002235799333
0.002744045452
0.001660513456
0.002276065821
0.002282899954
0.002801148391
0.001272700448
0.001750427504
0.001272696604
0.001750423831
0.002294742381
0.002308760653
0.002827310427
0.001674707444
0.002294717725
0.00230875408
0.0028272856
0.001263652644
0.001729329921
0.001249218592
0.001692979414
0.002275975084
0.002282874636
0.002801016611
0.001635857521
0.002241701401
0.00223576133
0.002743883035
0.001236998093
0.001654256508
0.001228655413
0.001621260463
0.002210477344
0.002189791236
0.002698120982
0.00158770019
0.002184119605
0.002148268359
0.002652480867
0.003127424891
0.003477066911
0.003166821682
0.003525035276
0.003076901958
0.00302827313
0.003560861921
0.002645105256
0.003156201589
0.00308042814
0.003655805473
0.002736050982
0.003165605353
0.002780683591
0.003246431885
0.003611643519
0.003297194993
0.003673808102
0.003203321661
0.003147668619
0.003728264936
0.002768525947
0.003291602299
0.003220624779
0.003836942735
0.002806571469
0.003191285105
0.002806590555
0.003339586546
0.003720912223
0.00333963416
0.003721277198
0.003319141451
0.003262020067
0.003876068374
0.002802506692
0.003319122741
0.003262018741
0.003876061786
0.002780933497
0.003106060521
0.002737105458
0.003297554908
0.003675538199
0.003247339104
0.003615673935
0.00329143966
0.003220626702
0.003836854213
0.002704997901
0.003203190815
0.003147676178
0.00372817689
0.002689842078
0.003008417104
0.002651827503
0.003167702833
0.003528552162
0.003127912404
0.003478728642
0.003156187654
0.003080445565
0.003655783684
0.00258478126
0.003076993732
0.003028295931
0.00356090486
0.006023543325
0.006092303655
0.006116317206
0.006162671163
0.006158264848
0.006195285796
0.006116315877
0.006162670019
0.006023540156
0.00609230073
0.0009602955252
0.0009446404827
0.001013862418
0.001125761196
0.001036189498
0.001194364768
0.00107916534
0.0009730867449
0.0009797984194
0.001255654768
0.001063754442
0.000959670883
0.0009658879908
0.001232852959
0.001002069689
0.0009650621855
0.001036057599
0.001157372871
0.0008818621218
0.0008973819544
0.001002067455
0.0009097248138
0.000965057913
0.0009179172094
0.001157369074
0.00103603457
0.0009358387749
0.0009422423605
0.001063762307
0.0009596837098
0.0009922990911
0.001064932735
0.0010186816
0.0009659274371
0.0012328504
0.001094482502
0.001079161265
0.00097308132
0.001034554156
0.001112393668
0.001034563527
0.000979786122
0.001255655226
0.001112402269
0.001036185713
0.0009358261302
0.001018700828
0.001094510205
0.0009923128737
0.0009421908945
0.00119436935
0.001064967694
0.0009097160465
0.0009178798808
0.0009603000237
0.0008818562601
0.0009446383952
0.0008973589937
0.001125765137
0.001013874854
0.000886832349
0.0009077945886
0.0006941796189
0.0009271792335
0.0006996199072
0.0009435597717
0.0007034150588
0.0009537736496
0.0007034132815
0.0009537712616
0.0006996166066
0.0009435571616
0.000694178112
0.0009271818685
0.0006891147009
0.0006823352366
0.0009078038925
0.0008868450306
0.006135072445
0.00623737015
0.006278946517
0.006293622652
0.006204779401
0.006269637837
0.006291468396
0.00629781018
0.006232627711
0.006281107273
0.006295418399
0.006298991897
0.006204779497
0.006269637882
0.006291468387
0.006297810154
0.006135072461
0.006237370224
0.00627894652
0.006293622599
0.006175488999
0.006203922848
0.006250220104
0.006260010486
0.006282227731
0.0062942461
0.006228015957
0.006243947321
0.006275353931
0.006279685971
0.006292493536
0.006297904026
0.006249618882
0.0062609577
0.006284669571
0.006287308024
0.006295913661
0.006299006484
0.006228015958
0.006243947277
0.006275353965
0.006279686003
0.006292493541
0.006297904008
0.00617548872
0.006203922432
0.006250220132
0.006260010468
0.006282227734
0.006294246065
0.006137951853
0.006192545706
0.006218655551
0.006192544774
0.006137949361
0.0030286645
0.005545396759
0.003248631764
0.00344540982
0.003374039449
0.003115756431
0.002570141275
0.002649033707
0.002766759319
0.002883752865
0.002947697134
0.002947697506
0.00288375418
0.002766763155
0.002649038977
0.002570146113
0.004439643213
0.003115750747
0.004504997465
0.004704628286
0.003374037888
0.004808827882
0.004903906574
0.003445410058
0.004903907008
0.004808831666
0.003248636003
0.004704634533
0.004505005251
0.00302867059
0.004439650383
0.002492142402
0.003786686562
0.003937813557
0.004349627761
0.005249796762
0.00575524791
0.005784331677
0.005845035967
0.005925806837
0.006008817466
0.00607981739
0.006161354548
0.006161711797
0.006170141768
0.006184071614
0.006203047928
0.006221275431
0.006271189495
0.006267089466
0.006267458541
0.006268692747
0.006271710622
0.006275284262
0.006293325431
0.006292610993
0.006292415795
0.006292590353
0.006293038393
0.006298501613
0.006298330465
0.006298205051
0.006298204699
0.006298238146
0.006298290781
0.006299717132
0.006299659052
0.006299605107
0.006299567079
0.006299544574
0.006299529207
0.006299949416
0.006299934023
0.006299918155
0.00629990237
0.006299888996
0.006299877825
0.006299991489
0.006299987792
0.006299983623
0.00629997892
0.006299974106
0.006299969501
0.006299998821
0.006299997918
0.006299996836
0.006299995557
0.006299994072
0.006299992497
0.006300000023
0.006299999764
0.006299999456
0.006299999092
0.006299998641
0.006299998126
0.006300000194
0.006300000085
0.006299999965
0.006299999826
0.00629999965
0.006299999418
0.002872134703
0.004149053484
0.004279003199
0.004694869042
0.005519148309
0.005984484145
0.006002451878
0.006035110231
0.006081168153
0.006130395397
0.006172414835
0.006242513417
0.006238656396
0.006241907248
0.006246823553
0.006254740553
0.006262512447
0.006291238652
0.006289419175
0.006288608658
0.006288710076
0.006289434775
0.006290380421
0.006298337479
0.006298025106
0.006297804607
0.006297713697
0.006297744753
0.006299670403
0.006299602857
0.006299539298
0.006299498406
0.006299474593
0.006299452792
0.006299946117
0.006299929602
0.006299911313
0.006299894004
0.006299879219
0.006299864738
0.00629999156
0.006299987812
0.006299983437
0.006299978284
0.006299973042
0.006299967779
0.006299999017
0.006299998129
0.006299997048
0.006299995692
0.006299994128
0.006299992426
0.006300000191
0.006299999926
0.006299999616
0.006299999245
0.006299998786
0.006299998253
0.006300000291
0.006300000186
0.006300000082
0.00629999997
0.006299999833
0.006299999663
0.006300000253
0.006300000211
0.006300000175
0.006300000153
0.006300000112
0.006300000045
0.003107009287
0.004414955397
0.004538355909
0.004936350341
0.005640086628
0.006066829964
0.006081113473
0.006105251125
0.006139577716
0.006176813703
0.006208507835
0.006265022161
0.006261875109
0.006263938499
0.006266795174
0.006271743089
0.006276612615
0.006295749347
0.006294745724
0.006294169325
0.006294146168
0.006294465855
0.006294894643
0.00629934558
0.006299194735
0.006299072749
0.006299002091
0.006298986801
0.006299891036
0.006299862367
0.006299832473
0.006299809128
0.006299791092
0.006299772109
0.00629998523
0.006299979413
0.006299972369
0.006299964947
0.00629995771
0.006299949772
0.006299998277
0.006299997062
0.00629999555
0.006299993626
0.006299991487
0.006299989105
0.006300000174
0.006299999847
0.006299999457
0.006299998962
0.006299998368
0.006299997671
0.006300000421
0.006300000274
0.006300000132
0.006299999978
0.0062999998
0.006299999583
0.006300000343
0.006300000273
0.006300000212
0.006300000171
0.006300000117
0.006300000059
0.006300000274
0.006300000249
0.006300000254
0.006300000259
0.00630000027
0.006300000257
0.003024599025
0.004322382992
0.004446470566
0.004843783383
0.005519151691
0.005984486743
0.006002454142
0.006035112232
0.006081169037
0.00613039593
0.006172415098
0.006242513757
0.006238656662
0.006241907479
0.006246823695
0.006254740648
0.006262512508
0.006291238656
0.006289419169
0.006288608642
0.006288710053
0.006289434752
0.006290380403
0.006298337427
0.006298025052
0.006297804555
0.006297713651
0.006297744713
0.006299670352
0.006299602807
0.006299539252
0.006299498371
0.006299474561
0.006299452773
0.006299946078
0.006299929565
0.00629991128
0.006299893974
0.006299879196
0.006299864716
0.006299991538
0.006299987792
0.006299983418
0.006299978268
0.006299973026
0.006299967765
0.006299999014
0.006299998125
0.006299997043
0.006299995685
0.006299994123
0.006299992417
0.006300000201
0.006299999934
0.00629999962
0.006299999248
0.006299998787
0.006299998255
0.00630000031
0.006300000199
0.00630000009
0.006299999979
0.006299999844
0.006299999677
0.006300000267
0.006300000216
0.006300000185
0.006300000171
0.006300000138
0.006300000072
0.002672484332
0.003943176066
0.00407627291
0.004485947232
0.005249802811
0.005755252961
0.005784335865
0.005845040611
0.005925808397
0.006008818582
0.006079817852
0.006161355405
0.006161712509
0.006170142416
0.006184071984
0.00620304817
0.006221275575
0.006271189669
0.006267089585
0.006267458619
0.006268692772
0.00627171062
0.006275284251
0.006293325391
0.006292610943
0.006292415718
0.00629259028
0.006293038333
0.00629850154
0.006298330384
0.006298204983
0.006298204629
0.006298238092
0.006298290729
0.006299717075
0.006299658992
0.006299605047
0.006299567028
0.006299544525
0.006299529164
0.006299949382
0.006299933987
0.00629991812
0.006299902335
0.006299888967
0.006299877794
0.006299991479
0.006299987781
0.006299983609
0.00629997891
0.006299974096
0.006299969492
0.006299998831
0.006299997923
0.006299996842
0.006299995565
0.006299994083
0.00629999251
0.006300000041
0.006299999776
0.00629999947
0.006299999114
0.006299998674
0.006299998163
0.006300000207
0.006300000094
0.006299999983
0.006299999861
0.006299999695
0.006299999469
0.002575398978
0.002685810497
0.002570517839
0.002607791027
0.002677297734
0.002710518853
0.002737875867
0.002882731358
0.002848332774
0.00297166296
0.003260750037
0.0036407204
0.002672477239
0.003378278772
0.003767333282
0.002833961986
0.002961731032
0.002823612389
0.002856143699
0.002949556835
0.002981614062
0.003002200468
0.003121766418
0.003134077596
0.003254124374
0.003543323426
0.003917074503
0.003024597247
0.003680899237
0.00407491934
0.003032103649
0.003032104018
0.003019300812
0.003051512282
0.003019301256
0.00305151258
0.003207394106
0.003328350184
0.003207394435
0.003328350507
0.003760577363
0.00414878396
0.003107009621
0.003760578036
0.004148784852
0.00296173214
0.002833963776
0.002949558512
0.002981615056
0.002823615359
0.00285614544
0.003134078626
0.003254126613
0.003002202474
0.00312177018
0.00368090243
0.004074922488
0.002872141239
0.003543330859
0.003917082394
0.002685812756
0.002575401089
0.002677301012
0.002710520927
0.002570520415
0.002607792699
0.002848335278
0.002971665712
0.002737877594
0.002882733763
0.003378287709
0.003767344218
0.00249214696
0.003260757127
0.003640729813
0.004072557409
0.004165896739
0.003796670042
0.004781881755
0.003964895259
0.004963526091
0.003821897797
0.004773551396
0.004805176032
0.003943160197
0.003968318836
0.004934060452
0.004950226341
0.004122482085
0.004882621698
0.004994795696
0.004076259619
0.004257026639
0.005009499139
0.00510561664
0.004501649387
0.00513802172
0.005297100457
0.004485933076
0.004669659619
0.005235397226
0.005416740655
0.004358902968
0.004487106885
0.004176627742
0.005171660302
0.004355182868
0.005349263973
0.004171547056
0.005145706933
0.005164371104
0.004322376841
0.00434254003
0.005309922546
0.005319586806
0.004461159535
0.005227342642
0.005321059137
0.004446465687
0.004623699616
0.005367410542
0.005445272467
0.004814496168
0.005446447318
0.005599297536
0.004843778682
0.005005606597
0.005553155976
0.005716714081
0.00457831445
0.004578314973
0.004449029384
0.005431305913
0.004449031102
0.005431307843
0.004434555786
0.005395197444
0.005406221709
0.004414957117
0.00443455718
0.005395199314
0.005406223184
0.004715360983
0.005455220407
0.005531952763
0.004538357258
0.004715362057
0.005455221757
0.005531953727
0.005069601928
0.005637008162
0.005783082314
0.004936351481
0.005069603381
0.005637009067
0.00578308322
0.004487109176
0.004358907689
0.004355188391
0.005349269909
0.004176637566
0.005171670516
0.004342544572
0.005309929112
0.00531959193
0.004149066384
0.004171555447
0.005145721306
0.005164380053
0.004623703488
0.005367415994
0.005445276647
0.00427901373
0.004461166434
0.005227354158
0.005321066008
0.005005610861
0.005553160273
0.005716717758
0.004694879162
0.004814506953
0.005446455425
0.005599304706
0.004165904957
0.004072565554
0.003964907601
0.004963541683
0.003796680837
0.004781895845
0.003968329533
0.004934080427
0.004950239784
0.003786699111
0.003821906777
0.004773569568
0.004805188607
0.004257035394
0.005009515909
0.005105627235
0.003937823292
0.004122489921
0.004882635701
0.004994805943
0.004669675565
0.005235410336
0.005416753678
0.004349639867
0.004501664074
0.005138034617
0.005297114885
0.001315249359
0.001356956065
0.001412092238
0.00146635669
0.001497416986
0.001497416912
0.001466356535
0.001412094583
0.001356959896
0.001315252863
0.001439946218
0.001670331399
0.001807121499
0.001758824186
0.001552384538
0.001203554988
0.001317491318
0.00131900166
0.001453148304
0.001407802807
0.001554277451
0.001375882913
0.001517868784
0.001252957038
0.001376385342
0.001203531831
0.0012523342
0.001227532452
0.001252957428
0.001276931242
0.001385614446
0.001376386252
0.001438197191
0.001552380369
0.001758824006
0.001317672539
0.001374295765
0.00134470524
0.001375883158
0.001402739495
0.001514296877
0.001517869358
0.001578694904
0.001406033006
0.001406032913
0.001435481971
0.001407802725
0.001435481865
0.001615571375
0.001554277253
0.001615571126
0.001807121249
0.001374295458
0.001317672047
0.001402739164
0.001319001292
0.001344704736
0.001578695529
0.001453147518
0.001514298474
0.001670335807
0.001439948498
0.001252333686
0.001203531366
0.001276930699
0.001203554608
0.001227531882
0.001438197203
0.001317490387
0.001385614244
0.006010687748
0.006025904098
0.006132590488
0.006118454923
0.006179154867
0.006160275593
0.006132591909
0.006118455754
0.006010690445
0.00602590548
0.006163178842
0.005756790114
0.005785564372
0.005846160666
0.004769130791
0.004881855934
0.00449852831
0.002570511591
0.00274562729
0.003257947242
0.006240112894
0.005988784166
0.006006045827
0.00603786407
0.005141356959
0.005226713641
0.004810520219
0.002823693902
0.003011517604
0.003538351401
0.006263243943
0.006071981085
0.00608521027
0.006108589424
0.005392106484
0.00545546269
0.005066165263
0.003020626315
0.003217957258
0.003755310461
0.006240113455
0.005988789772
0.006006050557
0.006037867602
0.005306361717
0.005367191367
0.005002105587
0.002950477188
0.003144180113
0.003675664666
0.006163180645
0.005756802049
0.005785574119
0.005846168252
0.004929145091
0.005008066518
0.004666139508
0.002677041856
0.002856905868
0.003374235644
0.002610797153
0.00267703389
0.002713304503
0.002883357054
0.002856900044
0.002971249207
0.00363598162
0.002486006266
0.003374223538
0.003761128506
0.002663619255
0.00285920595
0.002950473296
0.002985298687
0.003120787781
0.003144177358
0.003253059501
0.003909738566
0.002860809918
0.003675659946
0.004067106353
0.003012001019
0.003055569988
0.003020627435
0.003055570973
0.003327309547
0.003217958129
0.003327310367
0.004140876163
0.003093813406
0.003755311691
0.004140877715
0.003093813985
0.002985302127
0.002823700732
0.00285921199
0.003253063109
0.003011522498
0.003120794258
0.004067111195
0.00301200454
0.002873731266
0.003538361297
0.003909749054
0.002860817688
0.002757611041
0.002713311618
0.002570518738
0.002610803396
0.002971256353
0.00274563228
0.002883363313
0.003761142301
0.002663627639
0.002641277535
0.003257957422
0.003635993938
0.002486011942
0.002564011423
0.005927395738
0.005249398477
0.006083601448
0.00551955454
0.006142384397
0.005641075455
0.006083603619
0.005519560511
0.005927399853
0.005249409637
0.004802619472
0.003782442575
0.003820501723
0.004929109376
0.004946710485
0.003938268802
0.003965624729
0.004993657581
0.003939182873
0.004121714067
0.005008038682
0.005104225474
0.004076658904
0.004255256416
0.00466612022
0.005296640592
0.005416736301
0.005137211934
0.004347553142
0.005234703235
0.00448319846
0.005161470015
0.004143657379
0.004168397857
0.005306349385
0.005317307565
0.004317169149
0.004339538725
0.005320442396
0.004279155972
0.004458996252
0.005367181474
0.005445157545
0.004446723121
0.004621567803
0.005002099583
0.005600315147
0.00571840315
0.005446731984
0.004692015397
0.005553920641
0.004840894455
0.005404423522
0.004409700573
0.00443157245
0.005392110004
0.005404426625
0.004409703881
0.004431575512
0.005532243378
0.004538720771
0.004713334836
0.00545546524
0.005532245264
0.004538723386
0.00471333693
0.005066167593
0.005785219821
0.005785221176
0.005638248806
0.004933717791
0.005638250278
0.004933719638
0.005317318995
0.004317180731
0.0043395494
0.005141382481
0.00516149189
0.004143680527
0.00416841895
0.005445165629
0.004446732206
0.004621575344
0.005226732681
0.005320456352
0.00427917401
0.004459010517
0.004810534037
0.005718408102
0.005600324138
0.00555392733
0.00484090158
0.00544674359
0.004692029339
0.004946742973
0.003938297622
0.003965651355
0.004769165182
0.004802650243
0.003782467102
0.003820523877
0.005104247563
0.004076681745
0.004255275407
0.004881881516
0.004993679043
0.00393920159
0.00412173061
0.004498546411
0.005416751984
0.005296657781
0.00523472204
0.004483217913
0.005137230522
0.004347570238
0.006299969149
0.006299780238
0.006299598381
0.00629846577
0.006297345738
0.006289927485
0.006283666792
0.006277324358
0.006271767839
0.006209668815
0.006299995139
0.006299966742
0.006299934711
0.006299724466
0.006299476359
0.00629760789
0.006295721362
0.00629356004
0.00629150463
0.006266577623
0.006299998268
0.00629999112
0.006299982059
0.006299913086
0.006299822727
0.006299010268
0.006298111547
0.006297020789
0.006295937912
0.006281030343
0.006299995105
0.006299966624
0.006299934584
0.006299724311
0.0062994762
0.006297607645
0.006295721137
0.006293559872
0.00629150452
0.006266577841
0.006299969007
0.006299780009
0.006299598159
0.006298465426
0.006297345408
0.006289927107
0.006283666565
0.006277324334
0.006271767964
0.006209669958
0.006184289516
0.006163133025
0.006254316831
0.00624435948
0.006273157515
0.006266698075
0.006254317306
0.006244360127
0.006021310884
0.006184291496
0.006163135088
0.005793013894
0.002961050215
0.002832068712
0.002683215362
0.002572883907
0.005343631124
0.004346678202
0.005163961526
0.004167611862
0.004955856745
0.003956574261
0.004774794804
0.003789469554
0.001204806224
0.001325611817
0.001320835093
0.001462909273
0.001410581458
0.001565259393
0.001378318271
0.001528385689
0.001254342236
0.001385298354
0.001230738485
0.001254341614
0.001280195156
0.001389690225
0.001385298805
0.001441505926
0.001348386019
0.001378318086
0.001406916063
0.00151701537
0.001528386027
0.001581274519
0.001748530178
0.001439994471
0.00141058151
0.001439994493
0.001618114978
0.001565259294
0.001618114748
0.00179624617
0.001796245902
0.001406916138
0.00132083549
0.00134838621
0.001581275291
0.001462908856
0.001517017005
0.001748531712
0.001455900151
0.001402671665
0.001280195511
0.001204806978
0.001230738864
0.001441507113
0.001325611388
0.001389691032
0.001348968161
0.001308889528
0.001435024018
0.001545371598
0.001661220885
0.001661225428
0.001545376003
0.00143502716
0.001376083584
0.001318719158
0.001252750319
0.001203651653
0.006299999826
0.006299999735
0.006299999346
0.006299999104
0.006299997285
0.00629998713
0.006299934273
0.00630000008
0.006300000052
0.006299999842
0.006299999783
0.006299999303
0.006299997301
0.006299987022
0.006300000161
0.006300000152
0.006299999945
0.006299999928
0.006299999637
0.006299998974
0.00629999608
0.006300000066
0.006300000035
0.006299999826
0.006299999761
0.006299999272
0.006299997247
0.006299986944
0.006299999817
0.006299999719
0.006299999341
0.006299999087
0.006299997263
0.006299987069
0.00629993417
0.006299999594
0.006299999393
0.006299999151
0.006299998855
0.006299998491
0.006299998773
0.006299998341
0.006299997843
0.006299997268
0.006299996621
0.006299996319
0.006299995135
0.006299993732
0.006299992246
0.006299990642
0.00629998896
0.006299983177
0.006299978686
0.006299974079
0.006299969684
0.006299965176
0.006299961032
0.006299918938
0.006299903629
0.006299890724
0.006299879991
0.00629986995
0.006299862518
0.006299664987
0.006299612421
0.006299575281
0.006299553479
0.006299538896
0.006299531778
0.006299532719
0.006298365833
0.006298241992
0.006298239189
0.006298272943
0.006298325109
0.006298404888
0.006298493592
0.006292583411
0.006292737743
0.006293167199
0.006293742577
0.006294353033
0.006294941728
0.006295463303
0.006269266689
0.006272187761
0.00627568031
0.006279277658
0.0062825149
0.00628520725
0.006287350248
0.006185355236
0.006204194297
0.006222230358
0.006238169078
0.006250942043
0.006260545275
0.006267634461
0.006081648848
0.006136745923
0.006176970769
0.006204918841
0.006224483633
0.006093752902
0.006139447431
0.006299999997
0.006299999911
0.006299999811
0.006299999679
0.006299999492
0.006299999691
0.006299999553
0.006299999385
0.006299999175
0.006299998896
0.00629999907
0.006299998762
0.00629999835
0.006299997868
0.006299997299
0.006299996605
0.006299996337
0.006299995099
0.006299993641
0.006299992053
0.006299990231
0.006299988256
0.006299982862
0.006299977944
0.006299972928
0.006299967908
0.006299962446
0.006299957209
0.006299929937
0.006299912225
0.006299895495
0.006299881195
0.0062998673
0.006299854937
0.006299844367
0.00629961092
0.006299548793
0.006299509165
0.006299486148
0.006299465285
0.00629945538
0.006299450648
0.006297862435
0.006297768813
0.0062977981
0.006297862092
0.006297952162
0.006298057841
0.00629815649
0.006289002876
0.006289693602
0.006290608568
0.006291657401
0.006292658607
0.006293515099
0.006294196211
0.00624793783
0.006255693055
0.006263265301
0.006270231416
0.00627588185
0.006280057866
0.006283137399
0.006174269106
0.006206305414
0.006229314036
0.006244736254
0.006255491681
0.006163908114
0.006193975723
0.006300000129
0.006300000078
0.006300000031
0.006299999972
0.00629999986
0.0062999999
0.006299999847
0.00629999978
0.006299999695
0.006299999555
0.006299999564
0.006299999467
0.006299999328
0.006299999152
0.006299998929
0.006299998615
0.006299998678
0.006299998269
0.00629999775
0.006299997127
0.006299996355
0.00629999542
0.006299994705
0.006299992928
0.006299990926
0.006299988678
0.006299986033
0.006299983181
0.006299978747
0.006299972004
0.006299964912
0.00629995797
0.006299950342
0.006299942774
0.006299935232
0.006299864941
0.006299836056
0.006299813573
0.006299796177
0.006299777786
0.006299763632
0.006299750716
0.006299102518
0.006299033863
0.006299017696
0.006299022322
0.006299034572
0.00629905529
0.006299073728
0.006294352534
0.006294651508
0.006295059698
0.00629555481
0.006296029853
0.006296431577
0.006296735302
0.006267816876
0.006272596643
0.006277272286
0.006281609977
0.00628509873
0.006287606823
0.006289420822
0.006210345326
0.006234057944
0.006250791702
0.006261693203
0.006269194535
0.006196554869
0.006220065269
0.006299999984
0.006299999905
0.006299999809
0.006299999674
0.006299999476
0.006299999671
0.006299999536
0.00629999937
0.006299999157
0.006299998871
0.006299999037
0.006299998729
0.006299998319
0.006299997837
0.006299997263
0.006299996561