/*--------------------------------*- C++ -*----------------------------------*\
| =========                 |                                                 |
| \\      /  F ield         | foam-extend: Open Source CFD                    |
|  \\    /   O peration     | Version:     4.0                                |
|   \\  /    A nd           | Web:         http://www.foam-extend.org         |
|    \\/     M anipulation  |                                                 |
\*---------------------------------------------------------------------------*/
FoamFile
{
    version     2.0;
    format      ascii;
    class       volScalarField;
    location    "18";
    object      p;
}
// * * * * * * * * * * * * * * * * * * * * * * * * * * * * * * * * * * * * * //

dimensions      [0 2 -2 0 0 0 0];

internalField   nonuniform List<scalar> 
15810
(
0.0009198779719
0.0008826811634
0.00100063615
0.0009570758836
0.0009196297239
0.001044577264
0.0009933076148
0.0009502639213
0.001027506783
0.0009785831906
0.0009205418517
0.0008826951615
0.001000088939
0.0009571397246
0.0009195452213
0.00104429133
0.0009931387401
0.0009500682876
0.001083758028
0.001027264703
0.0009784964134
0.0009203839585
0.0008824831379
0.0009987124156
0.0009566945965
0.0009195358713
0.001043256652
0.0009930344251
0.0009499953493
0.001083407284
0.00102712722
0.0009784442866
0.0009205731524
0.0008830131489
0.0009992947586
0.0009572529639
0.0009195428555
0.001043887713
0.000993138467
0.0009500674993
0.00108375792
0.001027265062
0.0009784963294
0.0009206226609
0.000884139563
0.001000834221
0.0009584337352
0.0009196297719
0.001045470327
0.0009933092008
0.0009502642928
0.00108459559
0.001027507167
0.0009785832452
0.0008594304008
0.000898749055
0.0008793924689
0.0008622410566
0.0008997336983
0.0008801461692
0.0009376528578
0.0009781482744
0.0009586955405
0.0009376809651
0.000977363546
0.000959225765
0.00102226909
0.001074127353
0.001048158714
0.001020463705
0.001069631272
0.001047276845
0.0008633429052
0.0008994728407
0.0008793029732
0.0008643429763
0.0008993124193
0.0008791326237
0.0009367971703
0.0009758911308
0.0009588427226
0.0009361573849
0.0009745798458
0.0009585363486
0.001017853191
0.001064892044
0.001045862294
0.001015580271
0.001061126012
0.001044215283
0.0008644280584
0.0008989815006
0.0008787067686
0.0008644282965
0.0008989819092
0.0008787069254
0.0009356046714
0.000973769251
0.0009581663367
0.0009356050068
0.0009737706381
0.0009581634646
0.001014305208
0.001059152947
0.001043315177
0.001014305755
0.001059153254
0.001043316868
0.0008643437717
0.0008993136613
0.000879133011
0.0008633446875
0.0008994744401
0.0008793039169
0.000936155931
0.0009745793761
0.00095852037
0.0009367937356
0.000975887592
0.0009588186266
0.001015581427
0.001061127976
0.001044221002
0.001017853338
0.001064894014
0.001045867116
0.0008622440938
0.0008997353187
0.0008801481135
0.0008594329504
0.0008987508259
0.0008793940981
0.0009376801713
0.0009773634286
0.0009592147382
0.0009376541672
0.0009781504629
0.0009586953551
0.001020463161
0.001069631005
0.001047277277
0.001022269733
0.001074126966
0.001048159004
0.0008996813204
0.0009390128859
0.0009191454871
0.0009206220934
0.0009005836832
0.0009390828297
0.0009206436102
0.0008555448069
0.0009130948228
0.0008880352839
0.0008841379624
0.0008735361033
0.0008990034676
0.0008897095359
0.0009774261638
0.001022187401
0.0009972758302
0.001000844517
0.0009785598027
0.001021745794
0.0009995400712
0.0009235396934
0.000987496115
0.0009555825428
0.0009584553634
0.0009435812388
0.0009734053157
0.0009612106901
0.001074896052
0.001072763886
0.0009995824706
0.001079325987
0.001033390385
0.001045476802
0.001025473186
0.001064418941
0.001046520742
0.0008995314973
0.0009384437585
0.0009193617586
0.0009205704307
0.0008995086404
0.0009381270853
0.0009196263941
0.0008642682619
0.0009050947862
0.0008896812907
0.0008830134119
0.0008699250276
0.0009008440944
0.0008911271157
0.0009773750278
0.001020573539
0.0009978859301
0.0009993066013
0.0009771113377
0.001019448102
0.0009980180568
0.0009324661001
0.0009796072284
0.0009591061709
0.0009572744333
0.0009385653662
0.0009752523351
0.0009616018646
0.001072065954
0.001070407134
0.001011372675
0.001070577403
0.001040742473
0.001043886715
0.001018781404
0.001065947005
0.001045024833
0.0008990509393
0.0009377885213
0.0009191138757
0.0009203852223
0.0008990513517
0.000937790952
0.0009191144652
0.0008668416403
0.0009027775999
0.0008910755351
0.0008824832479
0.0008668411787
0.0009027780433
0.0008910755853
0.0009764426043
0.001018760175
0.0009972483931
0.0009987107333
0.0009764247605
0.001018760516
0.0009972337622
0.000934837891
0.0009771439494
0.0009608655769
0.000956691737
0.0009348359938
0.0009771427665
0.0009608645042
0.001069812315
0.001069812917
0.001014026556
0.001067777773
0.001043094187
0.001043257769
0.001014021648
0.00106777837
0.001043094173
0.0008995089641
0.0009381286842
0.000919624893
0.0009205436411
0.0008995309696
0.0009384397693
0.0009193557681
0.0008699225197
0.0009008436916
0.0008911258445
0.000882695062
0.0008642664065
0.0009050935599
0.0008896801889
0.0009770444011
0.001019442952
0.0009979607003
0.001000069106
0.000977285555
0.0010205562
0.0009978054019
0.0009385548859
0.0009752360583
0.0009615939391
0.0009571018255
0.000932444919
0.0009795875976
0.0009590983222
0.001070409352
0.001072067579
0.001018760188
0.0010659484
0.001045024503
0.001044287488
0.00101134122
0.00107057776
0.001040740235
0.0009005836716
0.0009390776643
0.0009206390569
0.0009198796693
0.000899682246
0.0009390142626
0.0009191455114
0.0008735414875
0.0008990032705
0.0008897135421
0.0008826815871
0.0008555470552
0.0009130950537
0.0008880372508
0.0009785126012
0.001021732312
0.0009994887218
0.001000635956
0.0009774175207
0.001022183428
0.0009972647597
0.0009435701494
0.0009733910084
0.0009612044218
0.0009570735957
0.0009235367477
0.0009875004504
0.000955586584
0.001072763423
0.001074896268
0.001025446307
0.00106441764
0.001046516478
0.001044575917
0.0009995783064
0.001079325518
0.001033390975
0.0008055113542
0.0008537082083
0.0008272138987
0.0008830198691
0.0008497603795
0.0009097440916
0.0008718926677
0.0008053390403
0.0008538239983
0.0008271898328
0.0008828680572
0.0008497547478
0.000909726371
0.0008719360903
0.0008052746544
0.0008538586036
0.0008271949824
0.0008828320603
0.0008497635248
0.0009097216168
0.0008719626468
0.000805346931
0.0008538321575
0.0008271895347
0.0008828678115
0.0008497545012
0.0009097261341
0.000871936002
0.0008055126096
0.0008537266143
0.0008272183471
0.000883023219
0.0008497617881
0.000909744765
0.000871892988
0.000782498725
0.000799570227
0.0008173220421
0.0008352465518
0.0007824977088
0.000799611477
0.0008173062777
0.0008352395817
0.0007824835479
0.0007996240388
0.0008173050996
0.0008352448694
0.0007825043559
0.0007996127186
0.0008173063452
0.0008352395472
0.0007824952909
0.0007995706663
0.000817322337
0.0008352466274
0.000841928721
0.000826671267
0.0008022182492
0.0007890007974
0.000785958032
0.0008427403877
0.0008262724513
0.0008002997269
0.0007910696388
0.000785998824
0.0008423611807
0.0008261498276
0.0008011270723
0.0007934919112
0.0007859676025
0.0008431156811
0.0008263276971
0.0008036191635
0.0007962397943
0.000785895843
0.0008445462597
0.0008267242558
0.0008290560005
0.0008268595889
0.0008223255697
0.0008148566342
0.0008226983521
0.0008160118082
0.0007953851913
0.0008232936647
0.0007917015288
0.0008208817208
0.0007986596102
0.0008211379335
0.0008143264123
0.0008011252775
0.000797898765
0.0008203395435
0.0008140671682
0.0007895838993
0.0008194148023
0.0007895845261
0.0008194153369
0.0007970566368
0.0008195697274
0.0008133489777
0.0008003003677
0.0007970559559
0.0008195700642
0.0008133474205
0.0007917035701
0.0008208834693
0.0007953880653
0.0008232963001
0.0007978968248
0.0008203401098
0.0008140615937
0.0008022198879
0.0007986575433
0.000821137843
0.0008143199266
0.0008007218836
0.0008268633398
0.0008048237394
0.0008290599406
0.0008004549528
0.0008227011583
0.0008160148284
0.0008034820804
0.0007999448753
0.0008223306285
0.0008148651375
0.0008163955652
0.0008039181766
0.0008067550924
0.0008055254291
0.0008220061802
0.000861844673
0.0008408280064
0.0008445414472
0.0008360277909
0.0008640144676
0.0008588162583
0.000796601888
0.0007934339684
0.0007967794642
0.0008103252075
0.000805107542
0.0008071799375
0.0008064302139
0.0008278468133
0.0008617515646
0.0008512287556
0.0008431163367
0.0008318146417
0.0008619827436
0.0008571728428
0.0007961771649
0.0007910813194
0.0007961741699
0.0008082707347
0.0008062981743
0.0008082678996
0.000806312396
0.0008290240948
0.0008611545527
0.0008546491355
0.0008423611116
0.0008290231164
0.0008611543997
0.0008546487594
0.0007967814077
0.0007891803614
0.0007966337921
0.0008071901823
0.0008065056768
0.0008103738339
0.0008053062127
0.0008318070372
0.0008619819232
0.0008571686229
0.0008427410959
0.0008278404438
0.0008617521673
0.0008512251922
0.0007980993533
0.0007827291197
0.0007964965541
0.0008067916371
0.0008056345621
0.0008164194763
0.0008039991451
0.0008360399965
0.0008640186612
0.0008588308296
0.0008419325944
0.0008220180351
0.0008618467486
0.0008408386901
0.0009339832545
0.0008924059438
0.0009339818865
0.0008923890287
0.0009339735958
0.0008923775256
0.000933981876
0.000892388981
0.000933983464
0.0008924060097
0.0008647146615
0.0009766580246
0.00102153157
0.001076480066
0.000865792955
0.001066183577
0.0008650801495
0.0008907421934
0.0009301502202
0.001059639855
0.0008655158841
0.0008916119862
0.0009310927724
0.001061905154
0.0008658826846
0.0009747330695
0.001018285547
0.001071373938
0.000895153639
0.0009356375683
0.0008658799099
0.0008946164372
0.0009747315346
0.0009344755718
0.001071375413
0.001018285913
0.0008929144852
0.000932608874
0.000865514941
0.0008916119229
0.0009721236835
0.001014396816
0.0009699453473
0.0009310918639
0.001061905831
0.001011145007
0.0008650804316
0.0008907422888
0.00096869136
0.001009370608
0.0009686920757
0.0009301508027
0.001059639606
0.001009370704
0.0008657947849
0.0008929147077
0.0009699465316
0.001011145155
0.0009721246674
0.0009326095613
0.001066182316
0.001014396593
0.0008946175684
0.0009344768016
0.0008647173159
0.0008951552605
0.0009766598803
0.0009356391255
0.001076479199
0.001021531735
0.0008299607214
0.0008239809645
0.0007915790765
0.0008176121567
0.000787421165
0.0008132323964
0.0007850932284
0.0008108557497
0.0007850937641
0.0008108562887
0.0007874229456
0.0008132342659
0.00079158207
0.0008176153731
0.0007971215877
0.0008015818695
0.0008239851106
0.0008299645944
0.001002972126
0.001023368772
0.001040421237
0.00105456918
0.001002918089
0.001023300043
0.001040365809
0.001054565416
0.001002880076
0.00102326722
0.001040343106
0.001054564278
0.00100291804
0.00102330001
0.00104036579
0.001054565406
0.001002972086
0.001023368735
0.001040421211
0.001054569167
0.0009552651798
0.0009107853355
0.0009736755405
0.0009270546833
0.0009894279601
0.001002694652
0.0009552382934
0.0009107152468
0.0009736404033
0.0009270143608
0.000989377102
0.001002654055
0.0009552080135
0.0009106673458
0.0009736132315
0.0009269843029
0.0009893524687
0.001002638212
0.0009552382819
0.0009107152161
0.0009736403828
0.0009270143391
0.0009893770843
0.001002654044
0.0009552652265
0.0009107853379
0.0009736755324
0.0009270546689
0.0009894279415
0.001002694638
0.000852587855
0.0008525646196
0.0008525638373
0.0008525645948
0.0008525878618
0.001109569993
0.001084596141
0.00110891895
0.001107404897
0.001108056001
0.001109656206
0.001140621838
0.001134178208
0.001125401546
0.001119912315
0.00111673578
0.001116735727
0.00111991221
0.001125401249
0.001134177782
0.001140621657
0.001110579094
0.00110965654
0.001092816027
0.001098990118
0.001108055695
0.001093336085
0.001095072353
0.001107404897
0.001095072416
0.001093336349
0.001108919159
0.001098990027
0.001092815581
0.001109569866
0.001110579017
0.001214658939
0.001437954137
0.001348848183
0.001247515064
0.001145217644
0.001421692049
0.001340222031
0.00125788711
0.001179499586
0.00111352828
0.001055182538
0.001425638126
0.001349122229
0.001273484863
0.001201538457
0.001136203315
0.001077187219
0.001429455043
0.001357055616
0.001285839844
0.001217452108
0.001153685663
0.001094876443
0.001363501671
0.001295599478
0.001230213042
0.001167973239
0.001109424317
0.001303215943
0.001240185798
0.001179168993
0.001120923351
0.001065912476
0.001013486013
0.001308922822
0.001247514576
0.001187773195
0.001130018479
0.001074855577
0.00102215705
0.001313176099
0.001252883364
0.001194193384
0.001136951399
0.001081776497
0.001028931055
0.00131619946
0.001256592298
0.001198534108
0.001141857598
0.001086881647
0.001033875458
0.001318158261
0.001258955255
0.001201245292
0.001144991434
0.001090277169
0.001037155189
0.001319150941
0.001260108032
0.00120249839
0.001146409657
0.001091966696
0.001038808382
0.001319483552
0.00126044469
0.001202800921
0.001146737026
0.001092507993
0.001039623737
0.001224753554
0.001437893535
0.001349310411
0.001251316379
0.001145118745
0.001421608537
0.001340004855
0.001257754424
0.001179483979
0.001113334662
0.001055086282
0.001425720415
0.001349151652
0.001273458632
0.001201569463
0.001136161205
0.001077131035
0.001429494691
0.001357047752
0.001285872412
0.00121745852
0.001153649525
0.001094848588
0.001363501131
0.001295618546
0.001230255866
0.00116797385
0.00110942454
0.001303215995
0.001240252853
0.00117918683
0.001120906996
0.001065930445
0.001013462542
0.001308918316
0.001247566204
0.001187810538
0.001130014781
0.001074846711
0.001022145152
0.00131316636
0.001252906606
0.001194221477
0.001136925174
0.001081707732
0.001028907525
0.001316176144
0.001256578706
0.001198493625
0.001141744378
0.001086741566
0.001033786681
0.001318092101
0.001258876774
0.00120112235
0.001144807602
0.001090091912
0.001036973986
0.001318941776
0.001259848039
0.00120218096
0.001146032592
0.001091594433
0.001038375341
0.001318964514
0.001259791356
0.001202035921
0.001145879433
0.001091656333
0.001038754991
0.001229135444
0.001438046345
0.001349883163
0.001253097424
0.001144962623
0.001421561575
0.001339952473
0.001257781421
0.001179491327
0.001113241908
0.001055026997
0.001425740896
0.001349176025
0.001273470962
0.00120159727
0.001136153503
0.001077102917
0.001429509533
0.001357081178
0.001285906442
0.001217482763
0.001153651959
0.00109483824
0.001363535792
0.001295649824
0.001230292166
0.0011679963
0.001109432275
0.001303237782
0.001240286664
0.001179212875
0.001120912713
0.001065936727
0.001013453297
0.001308934769
0.001247590442
0.001187835537
0.001130023896
0.001074842877
0.001022140426
0.00131317772
0.00125291945
0.001194229849
0.001136907994
0.001081667191
0.001028895794
0.001316177883
0.001256574682
0.001198464013
0.001141660186
0.00108664625
0.001033740336
0.001318071134
0.001258842935
0.001201057228
0.001144693252
0.001089978508
0.001036883361
0.001318851845
0.001259730772
0.001202032668
0.00114584776
0.001091409578
0.001038169475
0.001318738737
0.001259504366
0.001201696861
0.001145495117
0.00109127743
0.001038373909
0.001227878841
0.001437874818
0.001349481403
0.001253063144
0.001145118653
0.001421608547
0.001340004894
0.00125775447
0.001179483934
0.001113334577
0.00105508627
0.001425720422
0.001349151673
0.001273458654
0.001201569458
0.001136161165
0.001077131017
0.001429494696
0.001357047769
0.001285872428
0.001217458527
0.001153649512
0.001094848578
0.001363501146
0.001295618563
0.001230255878
0.00116797385
0.001109424537
0.001303216008
0.001240252865
0.001179186835
0.001120906996
0.001065930441
0.001013462536
0.001308918326
0.001247566215
0.001187810545
0.001130014784
0.00107484671
0.001022145149
0.001313166368
0.001252906615
0.001194221484
0.001136925178
0.001081707732
0.001028907523
0.00131617615
0.001256578713
0.001198493631
0.001141744383
0.001086741568
0.001033786681
0.001318092105
0.001258876779
0.001201122354
0.001144807605
0.001090091914
0.001036973986
0.001318941778
0.001259848042
0.001202180962
0.001146032594
0.001091594434
0.001038375341
0.001318964515
0.001259791357
0.001202035922
0.001145879434
0.001091656333
0.001038754991
0.001219921472
0.001437464784
0.001348234541
0.001251361335
0.001145217447
0.001421692049
0.001340222059
0.001257887195
0.00117949945
0.001113528062
0.00105518254
0.001425638136
0.001349122252
0.001273484887
0.001201538431
0.001136203234
0.0010771872
0.001429455054
0.001357055638
0.001285839865
0.001217452113
0.001153685633
0.001094876428
0.001363501694
0.001295599503
0.001230213056
0.001167973236
0.00110942431
0.001303215963
0.001240185813
0.001179168999
0.001120923351
0.001065912472
0.001013486005
0.001308922837
0.001247514591
0.001187773204
0.001130018483
0.001074855577
0.001022157046
0.001313176111
0.001252883377
0.001194193394
0.001136951405
0.001081776498
0.001028931053
0.00131619947
0.001256592308
0.001198534117
0.001141857604
0.001086881649
0.001033875458
0.001318158268
0.001258955263
0.001201245299
0.001144991439
0.001090277171
0.00103715519
0.001319150945
0.001260108036
0.001202498394
0.00114640966
0.001091966698
0.001038808382
0.001319483553
0.001260444692
0.001202800922
0.001146737027
0.001092507993
0.001039623736
0.001479219411
0.001479331742
0.001437067694
0.001392680428
0.001437381871
0.001393227607
0.001344368367
0.001286779531
0.001345342581
0.001284566382
0.001236549897
0.001171566236
0.001219921378
0.001237011062
0.00117350366
0.001479529642
0.001479642489
0.001438088681
0.001394219436
0.001438503767
0.001394793537
0.001346785031
0.001282872518
0.001347613626
0.001281780831
0.001237794587
0.001169727902
0.001227878885
0.001238701742
0.001169004756
0.001479708458
0.001479708453
0.001438790902
0.001395185892
0.001438790908
0.00139518589
0.001348134749
0.001281288536
0.001348134759
0.001281288561
0.001238976371
0.001167468867
0.001229135423
0.001238976369
0.001167468845
0.001479642463
0.001479529599
0.001438503794
0.001394793517
0.001438088728
0.001394219399
0.001347613644
0.001281780989
0.001346785042
0.001282872722
0.001238701739
0.001169004711
0.001224753577
0.001237794554
0.001169727802
0.001479331716
0.001479219391
0.001437381918
0.001393227596
0.001437067717
0.001392680419
0.001345342613
0.001284566483
0.001344368383
0.001286779603
0.001237011023
0.00117350351
0.001214659041
0.001236549923
0.001171566239
0.001146228867
0.0011334553
0.001479208706
0.001479898786
0.001479023462
0.001478570687
0.001394283154
0.001441826104
0.001399839519
0.001437464645
0.001393584412
0.001438863675
0.001394187701
0.001297355212
0.001359738685
0.001311815144
0.001348234403
0.001296901597
0.001352514779
0.001303143348
0.001170623704
0.001268784164
0.001196881625
0.001251361193
0.001205102963
0.001262297304
0.001224564487
0.001139639735
0.001135869816
0.001479092516
0.00147861589
0.00147904962
0.001478141355
0.001394159093
0.001440612168
0.001396083807
0.001437874749
0.00139409921
0.001439875897
0.001394312216
0.001297293071
0.001356519585
0.001306189427
0.001349481332
0.001297387238
0.001354678034
0.001303618352
0.001187457753
0.001266381288
0.001212573449
0.001253063088
0.001196977002
0.001264877498
0.001220605815
0.001137583459
0.001137583384
0.001479054975
0.001478127145
0.001479054965
0.001478127135
0.001394311728
0.001440423006
0.001394890883
0.001438046358
0.001394311722
0.001440423025
0.00139489088
0.001297539348
0.001355953018
0.001304586626
0.00134988318
0.001297539367
0.001355953041
0.001304586639
0.001191115264
0.001266225027
0.001216835439
0.001253097436
0.001191115274
0.001266225043
0.001216835447
0.001135869663
0.001139639409
0.001479049565
0.001478141305
0.001479092387
0.001478615695
0.001394099167
0.001439875977
0.001394312189
0.001437893685
0.001394158995
0.001440612389
0.001396083669
0.001297387301
0.00135467812
0.001303618382
0.001349310545
0.00129729315
0.001356519788
0.00130618943
0.001196976983
0.001264877558
0.001220605794
0.001251316523
0.00118745783
0.001266381444
0.001212573482
0.001133455016
0.00114622875
0.001479023381
0.001478570665
0.001479208646
0.001479898543
0.001393584368
0.001438863817
0.001394187728
0.001437954197
0.001394283106
0.001441826255
0.001399839335
0.001296901701
0.001352514925
0.001303143462
0.001348848246
0.001297355268
0.001359738846
0.001311815118
0.001205103041
0.00126229742
0.001224564589
0.001247515166
0.001170623708
0.001268784393
0.001196881762
0.001124161993
0.001112304762
0.001099633161
0.001091178799
0.001086766519
0.001086766378
0.001091178386
0.001099632328
0.00111230392
0.00112416155
0.001224226555
0.001232091961
0.001235689937
0.001234661852
0.001228164368
0.001437456922
0.001347021822
0.001440086809
0.001355336177
0.0014415293
0.001359166662
0.001441020133
0.00135789386
0.001438711879
0.00135140907
0.001479357243
0.001479754656
0.00139331964
0.001438711857
0.001395570234
0.001291214968
0.001351409024
0.001292262417
0.001228164257
0.001234661981
0.001480170624
0.001480443783
0.0013978008
0.00144102012
0.001399283953
0.001293884647
0.001357893836
0.001295018053
0.001480585483
0.001480585481
0.001400083149
0.001441529305
0.001400083161
0.001295592929
0.001359166687
0.00129559298
0.001235689882
0.001480443777
0.001480170614
0.001399283978
0.001440086827
0.001397800827
0.001295018419
0.00135533617
0.001293885142
0.001232091952
0.00122422663
0.001479754649
0.001479357228
0.001395570272
0.001437456936
0.001393319663
0.001292262679
0.001347021857
0.001291215143
0.001112906683
0.0009338418853
0.001112669697
0.0009337208265
0.001112573018
0.0009336582666
0.001112669646
0.0009337208126
0.00111290661
0.0009338418434
0.001348603139
0.001421412923
0.001339478835
0.001256923969
0.001441665401
0.001359015963
0.001169210858
0.001436786664
0.001343373099
0.001234352913
0.001348625257
0.001421334542
0.001339242433
0.0012567629
0.001440443666
0.00135582197
0.001186009134
0.001437844374
0.001346033297
0.00123551462
0.001348648398
0.001421288588
0.001339180665
0.001256780586
0.00144025746
0.001355268118
0.00118963783
0.001438564524
0.00134748141
0.001236592559
0.001348625283
0.001421334548
0.001339242471
0.001256762929
0.001439699207
0.001353987645
0.001195514469
0.001438270931
0.001346929684
0.001236360037
0.001348603167
0.001421412906
0.001339478847
0.001256924013
0.001438659547
0.001351792492
0.001203697823
0.001437119597
0.001344475513
0.001234816788
0.001392090962
0.001437119577
0.001392683305
0.001284566384
0.001344475463
0.001282184993
0.001170094243
0.001211790196
0.001234816734
0.001172011835
0.001216792548
0.001393713795
0.001438270926
0.001394308902
0.001280268213
0.001346929672
0.001279010293
0.001168275152
0.001221310569
0.001236360017
0.001167546538
0.001224223561
0.001394712985
0.001438564526
0.001394712991
0.001278426306
0.001347481419
0.001278426342
0.001166020913
0.001225371675
0.001236592567
0.00116602091
0.001225371702
0.001394308909
0.001437844384
0.00139371381
0.001279010467
0.001346033303
0.001280268482
0.001167546521
0.001224223611
0.001118248223
0.001235514647
0.001168275165
0.001221310715
0.00112373541
0.001392683342
0.001436786667
0.001392090989
0.00128218525
0.001343373154
0.001284566602
0.001172011818
0.001216792758
0.001132501611
0.001234353009
0.001170094355
0.001211790386
0.001138943554
0.001178708356
0.001144264233
0.001178660493
0.00114415212
0.001178664142
0.001143993995
0.001178660456
0.001144152132
0.001178708263
0.001144264265
0.001399368206
0.001437714841
0.001393762273
0.001438659489
0.001393714393
0.001437221143
0.001393073205
0.001310530228
0.001347969419
0.001295743388
0.001351792303
0.00130191147
0.00134737765
0.001295240886
0.001203697648
0.001195725908
0.001223412191
0.001267428681
0.001245791907
0.00126097593
0.001249659013
0.001395601816
0.001437661024
0.001393665243
0.001439699164
0.001393825886
0.001437644917
0.001393610833
0.001304874363
0.001348492662
0.001295535343
0.001353987559
0.001302294217
0.001348678171
0.001295555553
0.001195514425
0.001211400845
0.001219439311
0.001265020714
0.001249534956
0.001263516025
0.001251245654
0.001394400413
0.001437822476
0.001393828618
0.001440257473
0.001394400425
0.00143782248
0.001393828627
0.001303228626
0.001349089562
0.001295662663
0.001355268147
0.001303228667
0.001349089581
0.001295662707
0.001189637871
0.001215662478
0.00121566251
0.001264847162
0.001251245116
0.001264847202
0.00125124515
0.001393825923
0.001437644929
0.001393610857
0.001440443756
0.001395601838
0.001437661053
0.001393665282
0.001302294319
0.001348678223
0.00129555569
0.001355822113
0.001304874519
0.00134849276
0.001295535581
0.001186009329
0.001219439322
0.001211400933
0.001263516118
0.001251245749
0.001265020902
0.001249535164
0.00139371455
0.001437221174
0.001393073286
0.001441665424
0.001399368207
0.001437714827
0.001393762296
0.00130191176
0.001347377787
0.001295241183
0.001359015961
0.001310530332
0.001347969467
0.001295743588
0.001169211038
0.001223412389
0.0011957261
0.001260976189
0.001249659262
0.001267428807
0.001245792081
0.001631378277
0.001635014181
0.001568096661
0.001639739215
0.001570251867
0.001645727151
0.001572954911
0.001501121052
0.001429333931
0.001576198328
0.001631387199
0.001635027266
0.001568067429
0.001639763599
0.001570215109
0.001645752067
0.001572902749
0.001501112012
0.001429380599
0.001576082083
0.001631366762
0.00163500068
0.001568055443
0.001639730933
0.001570197419
0.001645715809
0.001572876098
0.001501105256
0.001429399379
0.001576038063
0.001631387188
0.001635027251
0.001568067418
0.001639763579
0.001570215094
0.001645752044
0.001572902731
0.001501112008
0.001429380605
0.001576082062
0.001631378266
0.001635014164
0.001568096651
0.00163973919
0.00157025185
0.001645727126
0.00157295489
0.001501121051
0.001429333942
0.00157619829
0.001500808164
0.001425443638
0.001500791177
0.001425534885
0.001500779079
0.001425558984
0.001500791177
0.001425534892
0.001500415577
0.001500808168
0.001425443646
0.001500476212
0.001479590287
0.00147947369
0.001479274351
0.001479155194
0.0014780532
0.001478978157
0.001478532554
0.001479022176
0.001478503945
0.001478960147
0.001479836168
0.001479147019
0.001437129223
0.001345903776
0.001439814979
0.001354544859
0.001441275645
0.00135847599
0.001440760909
0.001357172419
0.001438419191
0.001350481318
0.001392606061
0.001438419157
0.001394905738
0.001288385119
0.001350481228
0.001288983369
0.00139715977
0.001440760892
0.001398649429
0.001290144852
0.001357172374
0.001290954408
0.001230813325
0.001399453226
0.001441275652
0.001399453244
0.001291361752
0.001358476021
0.001291361832
0.001231728289
0.0012317283
0.00139864947
0.001439815006
0.001397159827
0.001290954765
0.001354544895
0.001290145401
0.001230813374
0.001089217089
0.001097690551
0.001394905811
0.001437129248
0.001392606122
0.001288983859
0.001345903874
0.001288385488
0.001110379819
0.001122251764
0.00122118795
0.001224851695
0.00122846746
0.001228467599
0.001224851904
0.001221188141
0.001480394232
0.001480114947
0.001479692467
0.001479280664
0.00126039292
0.00120271542
0.001260023376
0.00120238201
0.001258840787
0.001256436587
0.001252676412
0.001259742338
0.001201964475
0.001259768213
0.001202084718
0.001258774855
0.001256431008
0.001252696805
0.00125945744
0.00120163503
0.001259654693
0.001201950779
0.001258749588
0.001256433101
0.001252711586
0.00125974234
0.001201964477
0.001259768217
0.001202084722
0.001258774862
0.001256431016
0.001252696816
0.001260392922
0.001202715422
0.001260023383
0.001202382017
0.001258840797
0.001256436601
0.001252676429
0.0011466096
0.001092269473
0.001039517496
0.0009883390417
0.000938471324
0.001146257313
0.001091734148
0.001038739074
0.0009875698009
0.0009377788287
0.001201112499
0.001144845978
0.001090089595
0.001037043857
0.0009859469589
0.0009363420091
0.001198364335
0.001141690759
0.001086710257
0.001033741835
0.0009827611411
0.0009334015285
0.001193972897
0.001136731265
0.001081564347
0.001028766507
0.0009779705765
0.000928921249
0.001247265021
0.001187523913
0.001129766039
0.00107461663
0.00102197531
0.0009715054343
0.0009229787614
0.001239982062
0.001178975066
0.001120657207
0.001065651507
0.001013283077
0.000963271847
0.0009154445644
0.001230226736
0.001167985898
0.001109195224
0.001054291858
0.001002465753
0.0009532310277
0.0009062482996
0.001217408938
0.001153686215
0.001094609471
0.001040103686
0.0009891848044
0.0009411194138
0.0008952951689
0.001201056352
0.001135813862
0.001076745767
0.001023005712
0.000973445622
0.0009269262887
0.0008827017217
0.001054677362
0.001002616533
0.0009550657457
0.0009106547075
0.000868501739
0.0008922583249
0.0008525923765
0.001145791986
0.00109153014
0.001038559215
0.0009871862267
0.0009373561841
0.001145930615
0.00109148238
0.001038224154
0.000986865242
0.0009371480134
0.001201034939
0.001144761485
0.001090036941
0.001036840797
0.0009856025089
0.0009360129221
0.001198362407
0.00114167834
0.001086696944
0.001033650083
0.0009825737188
0.0009331779008
0.001194007114
0.001136735599
0.001081547824
0.001028722121
0.0009778414948
0.000928730875
0.001247294143
0.001187539969
0.001129759078
0.001074616428
0.001021936622
0.0009713803785
0.0009228124947
0.001239936644
0.001178887427
0.001120610423
0.001065665201
0.001013231591
0.0009631298995
0.0009152850679
0.001229957549
0.001167698766
0.001109104579
0.001054268016
0.001002377304
0.0009530800534
0.0009060931039
0.001217074733
0.00115332171
0.001094471737
0.001040003266
0.0009890466919
0.0009409608213
0.0008951494277
0.001200943352
0.001135628797
0.001076622806
0.001022851157
0.0009733015597
0.0009267697241
0.0008825503323
0.001054501668
0.001002441869
0.0009549470917
0.0009104928288
0.0008683533527
0.0008920919202
0.0008524872115
0.001145432265
0.001091194579
0.001038262662
0.0009867182615
0.0009368645002
0.001145781864
0.001091362745
0.001038111316
0.0009864987122
0.0009368517555
0.001201002
0.001144725484
0.001090019478
0.001036820709
0.0009854301462
0.0009358375409
0.001198362154
0.00114167985
0.001086700272
0.001033647832
0.0009824885781
0.0009330487655
0.001194025269
0.001136750898
0.001081549902
0.001028723873
0.0009777870124
0.0009286222291
0.00124731696
0.001187564245
0.001129774363
0.00107462183
0.001021934177
0.0009713312914
0.0009227205764
0.001239944394
0.001178891235
0.001120615231
0.001065674426
0.001013222042
0.0009630778409
0.0009151984323
0.001229900364
0.001167643404
0.001109099148
0.001054268173
0.001002354062
0.0009530219458
0.0009060031371