/*--------------------------------*- C++ -*----------------------------------*\
| =========                 |                                                 |
| \\      /  F ield         | foam-extend: Open Source CFD                    |
|  \\    /   O peration     | Version:     4.0                                |
|   \\  /    A nd           | Web:         http://www.foam-extend.org         |
|    \\/     M anipulation  |                                                 |
\*---------------------------------------------------------------------------*/
FoamFile
{
    version     2.0;
    format      ascii;
    class       volVectorField;
    location    "18";
    object      U;
}
// * * * * * * * * * * * * * * * * * * * * * * * * * * * * * * * * * * * * * //

dimensions      [0 1 -1 0 0 0 0];

internalField   nonuniform List<vector> 
15810
(
(0.000186239686 -0.000187900048 -2.250570259e-07)
(0.0002364730964 -0.0002319781087 -1.652994703e-06)
(0.0002357337806 -0.0002054420788 1.093540689e-06)
(0.0002984088144 -0.0002466356372 -8.84931168e-07)
(0.0006064848585 -0.0004547742457 -1.703240586e-06)
(0.0003937889456 -0.0002676405482 4.393990028e-08)
(0.0007473919403 -0.0004820750396 -2.654050508e-06)
(0.0007321549891 -0.0004550060203 -2.917642899e-07)
(0.000886496028 -0.0004513631868 3.501720698e-07)
(0.0008360576634 -0.0004226861105 -1.949975019e-07)
(0.0006094626742 -0.0005978428842 4.314114362e-06)
(0.00081181739 -0.0007710613535 2.542705616e-06)
(0.0007645144007 -0.000645305051 1.143732096e-05)
(0.001017455037 -0.0008204192285 5.368780547e-06)
(0.001324101662 -0.0009658311594 1.801073531e-07)
(0.001325002772 -0.0008696652903 1.029428315e-05)
(0.001623839237 -0.001016470913 1.900969044e-06)
(0.00159507382 -0.0009677056615 7.330500225e-07)
(0.002010489685 -0.000954943661 2.996897569e-06)
(0.001918052019 -0.0009567016421 1.509214392e-06)
(0.001822544719 -0.0009057684679 5.36521267e-07)
(0.0007643791718 -0.0007421639104 1.749485463e-06)
(0.001040228411 -0.0009752674823 1.338168436e-06)
(0.0009552328234 -0.0007982429662 3.748941611e-06)
(0.00129792709 -0.001035828777 2.102209717e-06)
(0.001557876751 -0.001127723228 -5.522312222e-09)
(0.001684706968 -0.001092334986 3.333940223e-06)
(0.001907396598 -0.001184933384 -2.805961541e-09)
(0.001878757218 -0.001132382684 -3.261903843e-09)
(0.002359492843 -0.001112883185 -2.1237739e-11)
(0.002255920695 -0.001118775955 -2.114117173e-09)
(0.002148099967 -0.001062420097 -2.064469264e-09)
(0.0007138340291 -0.0006957761757 -3.915929005e-06)
(0.0009603604052 -0.0009060348266 -2.069763991e-06)
(0.0008931729489 -0.0007491587363 -9.516714834e-06)
(0.001201278738 -0.0009635006809 -4.478532386e-06)
(0.001324096567 -0.0009658234261 -2.026107119e-07)
(0.001560781209 -0.001016834821 -8.864782021e-06)
(0.00162380918 -0.001016464898 -1.918218087e-06)
(0.001595073385 -0.0009677013736 -7.458700187e-07)
(0.00201048895 -0.0009549457184 -2.996661234e-06)
(0.001918048445 -0.0009566995886 -1.514437149e-06)
(0.001822544212 -0.0009057675312 -5.414995484e-07)
(0.0004384385105 -0.0004362099133 -1.879618461e-06)
(0.0005580151584 -0.0005422172506 3.807952391e-07)
(0.0005520884837 -0.0004727568597 -7.753965626e-06)
(0.0007063042754 -0.0005798304333 -2.278511898e-06)
(0.0006064730644 -0.0004547612538 1.702007623e-06)
(0.0009226967805 -0.0006167454391 -6.941683927e-06)
(0.0007473881615 -0.0004820652334 2.661259851e-06)
(0.0007321538581 -0.0004550000354 2.900500328e-07)
(0.0009338943959 -0.0004549242365 -3.864555622e-06)
(0.0008864932347 -0.0004513593089 -3.496263487e-07)
(0.0008360570983 -0.000422683359 1.939079897e-07)
(0.0001235436486 -0.0001658567758 -3.417681509e-06)
(0.000133164977 -0.0001489190042 -5.940626491e-08)
(0.0001651235516 -0.0001890334665 8.729198953e-08)
(0.0002911141169 -0.0003824407517 -1.318910721e-06)
(0.0003110765728 -0.000340736337 1.975784928e-06)
(0.0003889953771 -0.0004429676046 1.53959267e-06)
(0.0001491624098 -0.0001505778708 6.571612801e-07)
(0.0001684320553 -0.000158176086 1.502287027e-06)
(0.0002063362521 -0.0001926921504 2.773697702e-07)
(0.0003468028887 -0.0003429532216 3.955127781e-06)
(0.0003898025788 -0.0003586420772 7.124801496e-06)
(0.0004870462051 -0.00044893991 4.196461826e-06)
(0.000194678234 -0.0001704337241 3.107742248e-06)
(0.0002372045313 -0.0001822271204 5.48587999e-06)
(0.0002757426827 -0.000222233778 2.865658945e-06)
(0.0004503556684 -0.0003823897772 1.208268809e-05)
(0.0005527632796 -0.0004069498394 1.797487308e-05)
(0.0006500412357 -0.0005046445409 1.342357805e-05)
(0.0004091131631 -0.0005212217943 2.976683376e-06)
(0.000429295955 -0.00046251888 4.469675373e-06)
(0.0005448602466 -0.0006078570353 4.582968056e-06)
(0.0004796265595 -0.0006057427383 3.357792898e-06)
(0.0005005350802 -0.0005359488167 3.912281891e-06)
(0.0006397859472 -0.0007085114295 3.926292958e-06)
(0.0004761248144 -0.0004647061691 6.111500984e-06)
(0.000534137713 -0.0004851773667 9.720671639e-06)
(0.0006748004154 -0.0006134115967 7.026650644e-06)
(0.0005542395602 -0.0005380206342 5.142166647e-06)
(0.0006209233693 -0.000561048764 7.92601361e-06)
(0.0007898861013 -0.0007139166757 6.055715253e-06)
(0.0006158491826 -0.0005161806975 1.513677334e-05)
(0.0007544947687 -0.000548502832 2.030187105e-05)
(0.0008981224296 -0.0006873078638 1.697089004e-05)
(0.0007150647504 -0.0005954277035 1.190792697e-05)
(0.0008759947735 -0.0006324540122 1.531973053e-05)
(0.00104921425 -0.0007960869783 1.36096772e-05)
(0.0005146741238 -0.0006453605031 1.749280371e-06)
(0.0005348570594 -0.0005704635806 1.733361809e-06)
(0.0006864911937 -0.0007559015516 1.907289413e-06)
(0.0005146741632 -0.0006453593712 -1.764667988e-06)
(0.0005348569417 -0.0005704639242 -1.743757242e-06)
(0.0006864917953 -0.0007559007021 -1.922771391e-06)
(0.0005914579251 -0.0005723922662 2.125581087e-06)
(0.0006622854436 -0.0005966330692 3.082435387e-06)
(0.0008449823667 -0.0007608999541 2.527062119e-06)
(0.0005914525182 -0.0005723877405 -2.129370499e-06)
(0.0006622873153 -0.0005966313371 -3.087041751e-06)
(0.000844968364 -0.0007608919045 -2.525178481e-06)
(0.00076215991 -0.0006328434845 4.466949574e-06)
(0.000933115213 -0.0006721423044 5.635006196e-06)
(0.001121258536 -0.0008478898884 5.071012874e-06)
(0.0007621641131 -0.000632846694 -4.466813897e-06)
(0.0009331140629 -0.0006721419042 -5.63606599e-06)
(0.001121259678 -0.0008478888454 -5.075046779e-06)
(0.0004796251976 -0.000605738735 -3.37447327e-06)
(0.0005005343178 -0.0005359475877 -3.922523859e-06)
(0.0006397860429 -0.0007085073634 -3.942419349e-06)
(0.0004091061035 -0.000521215751 -2.994111505e-06)
(0.0004292932742 -0.0004625138248 -4.47761886e-06)
(0.0005448549563 -0.0006078485803 -4.598803384e-06)
(0.0005542212936 -0.00053800303 -5.150786935e-06)
(0.0006209266638 -0.0005610407089 -7.935357713e-06)
(0.0007898351941 -0.0007138890415 -6.070731044e-06)
(0.0004761018996 -0.0004646829754 -6.118291359e-06)
(0.0005341387642 -0.0004851660751 -9.726207115e-06)
(0.0006747326794 -0.00061337829 -7.038928087e-06)
(0.0007150797887 -0.0005954386375 -1.190811099e-05)
(0.0008759920385 -0.0006324525696 -1.531835378e-05)
(0.001049217048 -0.0007960828273 -1.360972642e-05)
(0.0006158693497 -0.0005161927016 -1.513631634e-05)
(0.0007544952118 -0.000548501447 -2.029764184e-05)
(0.0008981326497 -0.0006873030266 -1.696475079e-05)
(0.0002910990719 -0.0003824355599 1.307436945e-06)
(0.0003110714019 -0.0003407298013 -1.979609358e-06)
(0.0003889829457 -0.0004429582216 -1.549533442e-06)
(0.0001235350242 -0.0001658534784 3.415781492e-06)
(0.000133162564 -0.0001489165792 5.891126236e-08)
(0.0001651174447 -0.0001890289297 -8.874387572e-08)
(0.000346790495 -0.0003429417831 -3.956833458e-06)
(0.0003898009275 -0.0003586367142 -7.123485553e-06)
(0.0004870083874 -0.0004489258625 -4.197202244e-06)
(0.0001491592218 -0.0001505758903 -6.586644276e-07)
(0.0001684302395 -0.0001581748951 -1.502232502e-06)
(0.000206327949 -0.0001926907781 -2.810684518e-07)
(0.0004503667692 -0.000382394073 -1.208092652e-05)
(0.0005527664457 -0.0004069493578 -1.797137297e-05)
(0.0006500549055 -0.0005046420563 -1.341523903e-05)
(0.0001946796661 -0.0001704338355 -3.107475382e-06)
(0.0002372054955 -0.0001822273329 -5.485202051e-06)
(0.0002757476117 -0.0002222327162 -2.862565459e-06)
(0.0002141476085 -0.0002133206887 1.054478623e-07)
(0.0002398281567 -0.00021704999 -2.543000127e-07)
(0.000248180214 -0.0002212297384 -1.46040207e-06)
(0.0004384448999 -0.0004362212846 1.881536305e-06)
(0.0005217387735 -0.0005145380579 1.363080956e-06)
(0.0005818891726 -0.0005229042376 3.293277902e-06)
(0.0006372161093 -0.0005704506362 1.006033488e-06)
(0.0002396467294 -0.0002323806963 -1.339146412e-05)
(0.0002730603282 -0.0002314728363 8.263828829e-06)
(0.0002931649168 -0.000251097615 -3.28516183e-06)
(0.000558035635 -0.0005422342714 -3.953518812e-07)
(0.0005874096348 -0.0005463314684 -6.855767056e-06)
(0.0006568829783 -0.0005788576422 2.25126385e-06)
(0.0006839464304 -0.0005783832673 -5.220697138e-06)
(0.0002695376576 -0.0002252991971 6.788685241e-07)
(0.0003108329468 -0.0002390178695 1.121834867e-06)
(0.0003172706708 -0.0002345076613 -2.008704531e-06)
(0.0005520877019 -0.0004727488588 7.7548628e-06)
(0.0006531270234 -0.0005432520771 4.389311311e-06)
(0.0007486255769 -0.0005688567764 9.16171067e-06)
(0.0008041071936 -0.0006103007913 3.147698561e-06)
(0.0002971290616 -0.0002507905095 -1.20334933e-05)
(0.0003442820413 -0.0002462957726 7.806256935e-06)
(0.000363418305 -0.0002753912197 -5.400423065e-06)
(0.0007064273584 -0.0005798541005 2.309990901e-06)
(0.0007427461952 -0.0006040017583 -1.605188643e-06)
(0.000822874559 -0.0006203675122 3.069585064e-06)
(0.0008477912176 -0.0006303173291 -3.947250218e-06)
(0.0003719441243 -0.0002587724238 5.799485525e-06)
(0.0008978367583 -0.0005805909045 1.311438577e-05)
(0.000380288124 -0.000264244196 -1.586148981e-05)
(0.000456804821 -0.0002607156137 1.134086669e-05)
(0.0004584239321 -0.0002856918338 -9.176836311e-06)
(0.0009226770569 -0.0006167344056 6.947343892e-06)
(0.0009426017854 -0.0006384751709 -4.711119981e-07)
(0.001069655605 -0.0006242147782 9.015865377e-06)
(0.001071214956 -0.0006454087652 -2.580383987e-06)
(0.0007397970559 -0.0007166274274 4.25988655e-06)
(0.0008217045762 -0.0007265470779 5.383023658e-06)
(0.0009041200891 -0.0007920821636 3.606214047e-06)
(0.0007138372885 -0.0006957805127 3.903025838e-06)
(0.00087541009 -0.0008419371843 3.345000795e-06)
(0.0009705514869 -0.000853006041 4.700922949e-06)
(0.001079165708 -0.0009411895415 3.04174386e-06)
(0.00085559897 -0.0007812301009 -2.975167e-06)
(0.0009598043993 -0.0008162853682 3.844803872e-06)
(0.001006889946 -0.0008320644851 -3.300525191e-06)
(0.0009603584494 -0.0009060410625 2.049569545e-06)
(0.001019527843 -0.0009209357216 1.910582285e-06)
(0.001137838913 -0.0009700291085 -2.688806253e-07)
(0.001191927748 -0.0009788477718 -1.58230387e-06)
(0.0009206469752 -0.0007528251356 8.406212397e-06)
(0.001054440873 -0.0007869746279 1.25667478e-05)
(0.001137826933 -0.000841341343 7.638327253e-06)
(0.0008931660599 -0.0007491445783 9.50900672e-06)
(0.001086277717 -0.00088329953 6.805635525e-06)
(0.001242268397 -0.0009209217013 1.05302576e-05)
(0.001353765355 -0.0009993535671 6.588312389e-06)
(0.00106652388 -0.0008582996222 6.373123832e-07)
(0.0011952621 -0.0008691902613 6.233255708e-06)
(0.001240258242 -0.0009048446611 -1.496532996e-06)
(0.001201395264 -0.000963486957 4.444518199e-06)
(0.001272236142 -0.001012908053 5.048351584e-06)
(0.001414367312 -0.0010333036 1.769836797e-06)
(0.001466830589 -0.001063022266 6.805223347e-07)
(0.001263384325 -0.000809671629 1.571712055e-05)
(0.001488328406 -0.0009406969998 1.204219759e-05)
(0.0013490788 -0.0009014748361 3.548820926e-06)
(0.001548870661 -0.0008825000663 9.690035058e-06)
(0.001557820141 -0.0009228381164 3.32143918e-07)
(0.001560776136 -0.00101683765 8.862169316e-06)
(0.00160509727 -0.001061998296 8.854228042e-06)
(0.001828246201 -0.001039263799 4.766708699e-06)
(0.00184082919 -0.001079982666 3.813965754e-06)
(0.0009421632483 -0.000901413123 1.818792507e-06)
(0.001043407226 -0.0009127806052 1.931159089e-06)
(0.001162014078 -0.00100730977 1.518007882e-06)
(0.0007643785901 -0.0007421637766 -1.761259838e-06)
(0.0009421653626 -0.0009014124474 -1.83425317e-06)
(0.001043401935 -0.0009127786459 -1.945199204e-06)
(0.00116201972 -0.001007308043 -1.532540415e-06)
(0.001105419716 -0.000993362293 -1.075329794e-06)
(0.001233843961 -0.001042752038 2.263819488e-06)
(0.001295955274 -0.001058040614 -6.125013132e-07)
(0.001040229787 -0.0009752664905 -1.357108945e-06)
(0.001105419992 -0.0009933610782 1.055987011e-06)
(0.001233845511 -0.00104275089 -2.281604484e-06)
(0.001295955515 -0.00105803858 5.945327171e-07)
(0.001167006061 -0.0009445518043 3.129016715e-06)
(0.001334192805 -0.0009843465941 3.959720738e-06)
(0.001456167653 -0.001067661367 2.884361304e-06)
(0.0009552391463 -0.0007982484212 -3.746195661e-06)
(0.001166961665 -0.0009445555589 -3.097134705e-06)
(0.001334195402 -0.0009843410286 -3.960915162e-06)
(0.001456112778 -0.001067651619 -2.854252685e-06)
(0.001374669684 -0.001090636623 -5.233364389e-07)
(0.001531280304 -0.001109144967 3.187218309e-06)
(0.001592428703 -0.001148417859 -2.512360614e-07)
(0.001297895162 -0.001035832706 -2.102810271e-06)
(0.001374674582 -0.001090635513 5.157351685e-07)
(0.001531243323 -0.00110913822 -3.187215059e-06)
(0.001592430282 -0.001148415 2.422620206e-07)
(0.001597993541 -0.001007745573 4.80116372e-06)
(0.00159799396 -0.00100774459 -4.804535965e-06)
(0.001732590829 -0.001141790716 2.050420096e-07)
(0.001978499129 -0.001117857436 3.65445272e-06)
(0.001995690626 -0.001165923419 -1.157949558e-07)
(0.001684711393 -0.001092333914 -3.339079562e-06)
(0.001732574156 -0.001141795467 -1.917330507e-07)
(0.001978500577 -0.001117857618 -3.658156737e-06)
(0.001995688331 -0.001165928791 1.151259179e-07)
(0.000875414292 -0.0008419317433 -3.360917921e-06)
(0.000970527877 -0.0008529971348 -4.725216894e-06)
(0.001079178195 -0.0009411815945 -3.061943732e-06)
(0.0006094566157 -0.0005978323294 -4.319568953e-06)
(0.0007397968673 -0.0007166144066 -4.272529561e-06)
(0.0008216658986 -0.0007265286573 -5.383146731e-06)
(0.0009041234486 -0.0007920644994 -3.615601695e-06)
(0.001019522865 -0.0009209280736 -1.932474798e-06)
(0.001137839698 -0.0009700227834 2.490356129e-07)
(0.001191922837 -0.000978837605 1.561455137e-06)
(0.0008118107218 -0.0007710477268 -2.563883669e-06)
(0.0008555822216 -0.0007812140326 2.946494956e-06)
(0.0009597967575 -0.0008162723569 -3.862131477e-06)
(0.001006874066 -0.0008320447591 3.276688131e-06)
(0.001086122146 -0.0008833103615 -6.822273961e-06)
(0.001242253608 -0.0009208973526 -1.053484095e-05)
(0.001353549082 -0.0009993089294 -6.599872352e-06)
(0.0007645136568 -0.0006453191585 -1.144359343e-05)
(0.0009204493709 -0.0007528426957 -8.42976254e-06)
(0.001054423171 -0.0007869463742 -1.256341557e-05)
(0.001137580406 -0.0008413048486 -7.647877245e-06)
(0.001272237484 -0.001012903549 -5.076110142e-06)
(0.001414232273 -0.001033281811 -1.802204802e-06)
(0.001466813563 -0.001063008018 -7.098040172e-07)
(0.001017294725 -0.0008204303512 -5.368275577e-06)
(0.001066520102 -0.0008582921514 -6.462126649e-07)
(0.001195084359 -0.0008691674905 -6.231356459e-06)
(0.001240261424 -0.0009048351811 1.484044524e-06)
(0.001488331214 -0.0009406941649 -1.20418627e-05)
(0.001263393521 -0.0008096701254 -1.571289265e-05)
(0.00160502252 -0.001062010442 -8.857429043e-06)
(0.00182824877 -0.001039265608 -4.767947529e-06)
(0.001840817156 -0.001079998782 -3.817506682e-06)
(0.001325011168 -0.0008696634011 -1.02914706e-05)
(0.001348983388 -0.0009014910966 -3.555491414e-06)
(0.0015488757 -0.0008825054902 -9.687630253e-06)
(0.001557802018 -0.0009228558858 -3.335103128e-07)
(0.0005217329495 -0.0005145240527 -1.369203302e-06)
(0.00058185783 -0.0005228845674 -3.273219932e-06)
(0.0006372170947 -0.0005704358277 -1.003338808e-06)
(0.0001862382512 -0.0001878973751 2.256230066e-07)
(0.000214145514 -0.0002133152561 -1.064067801e-07)
(0.0002398222425 -0.0002170457747 2.589225615e-07)
(0.0002481817163 -0.0002212252649 1.461821148e-06)
(0.0005873724575 -0.0005463037653 6.82644468e-06)
(0.0006568678506 -0.000578843088 -2.26037893e-06)
(0.0006839227478 -0.0005783572271 5.199220122e-06)
(0.0002364634917 -0.0002319695051 1.650213579e-06)
(0.0002396269936 -0.0002323630864 1.337996678e-05)
(0.0002730543193 -0.0002314667652 -8.264594408e-06)
(0.0002931509075 -0.0002510829361 3.278303176e-06)
(0.0006530210063 -0.0005432677127 -4.39821914e-06)
(0.000748642075 -0.0005688494012 -9.149321742e-06)
(0.0008040103185 -0.0006102922787 -3.139722119e-06)
(0.0002357326015 -0.0002054423401 -1.094444487e-06)
(0.0002695136724 -0.0002253045858 -6.933717051e-07)
(0.0003108419735 -0.0002390176914 -1.116284286e-06)
(0.0003172721499 -0.0002345238858 1.996679912e-06)
(0.0007427305506 -0.0006039863111 1.615559586e-06)
(0.0008228021458 -0.0006203397148 -3.033981354e-06)
(0.0008477878427 -0.000630301136 3.956115483e-06)
(0.000298379716 -0.0002466237027 8.887406682e-07)
(0.000297130678 -0.0002507869577 1.203443001e-05)
(0.0003442730323 -0.0002462908553 -7.807899557e-06)
(0.0003634315835 -0.0002753888419 5.398723639e-06)
(0.0008978489013 -0.0005805928963 -1.311003252e-05)
(0.0003719481713 -0.0002587729521 -5.79781723e-06)
(0.0009425720943 -0.0006385039674 4.701247087e-07)
(0.001069662964 -0.0006242253279 -9.013390574e-06)
(0.001071214473 -0.0006454355561 2.580874906e-06)
(0.000393793433 -0.0002676426951 -3.941349317e-08)
(0.0003802869815 -0.000264253723 1.585811371e-05)
(0.0004568049192 -0.0002607183475 -1.133956292e-05)
(0.0004584214052 -0.0002856952879 9.176797547e-06)
(0.0004209756232 -0.0003020845002 -8.616375718e-07)
(0.0004926030813 -0.0003979916422 -4.7559637e-06)
(0.0005131214596 -0.0003421555434 -1.215160276e-06)
(0.0006079656609 -0.0004177701712 -7.224574596e-07)
(0.0006069219473 -0.0003583863711 -3.68333834e-07)
(0.0007098244035 -0.0004096016935 9.724219199e-08)
(0.0006906084475 -0.0003547991895 -1.229043011e-07)
(0.000928864189 -0.000644123268 8.258296677e-08)
(0.001083489198 -0.0008443097722 -5.009207661e-07)
(0.001132119936 -0.0007345429717 -5.250481057e-07)
(0.001330736471 -0.0008894477643 2.308466026e-08)
(0.0013337464 -0.0007728395166 -2.272844209e-07)
(0.001553383945 -0.0008790650793 1.494934472e-07)
(0.001517152091 -0.0007687712208 -2.276620532e-07)
(0.001098369402 -0.0007547318584 -6.036384996e-09)
(0.001278262559 -0.0009871215373 -1.571198606e-08)
(0.001338205429 -0.0008620631071 -1.152223914e-09)
(0.001569824836 -0.001041667994 -7.173456971e-09)
(0.001575563311 -0.0009082864548 -2.589798367e-09)
(0.001832731996 -0.001031625784 -3.991198917e-09)
(0.001792035583 -0.0009046096492 -2.197446446e-09)
(0.0009290919691 -0.0006442881469 -3.408016519e-09)
(0.001083532569 -0.0008442996996 4.827400136e-07)
(0.001132147502 -0.0007345650188 5.291985232e-07)
(0.001330736302 -0.0008894337936 -3.958636359e-08)
(0.001333747995 -0.0007728396423 2.201865051e-07)
(0.001553381985 -0.0008790596402 -1.591344512e-07)
(0.001517152212 -0.0007687695971 2.22341419e-07)
(0.0004208710869 -0.0003020184141 7.764248393e-07)
(0.0004925793758 -0.00039792198 4.715971305e-06)
(0.0005131158391 -0.0003421542268 1.184043264e-06)
(0.000607962825 -0.0004177375431 7.095796059e-07)
(0.0006069266203 -0.0003583761786 3.581648465e-07)
(0.0007098241305 -0.0004095898237 -1.006704481e-07)
(0.0006906106096 -0.0003547936653 1.199831416e-07)
(0.0004657287721 -0.0002488790563 -4.057760321e-07)
(0.0005375937197 -0.0002850071916 -3.73923073e-07)
(0.0006102290078 -0.0003008999054 -7.135083335e-08)
(0.0006779738793 -0.0003010791015 -2.603291278e-08)
(0.001027323189 -0.0005373198162 -2.151857099e-07)
(0.001185634165 -0.0006175891963 -4.040065296e-07)
(0.001343613601 -0.0006542524124 -1.584147839e-07)
(0.001492109284 -0.0006567392187 -1.630591173e-07)
(0.001214848372 -0.0006316551143 -4.692969037e-09)
(0.001401862514 -0.0007265783152 -1.553242521e-09)
(0.00158818459 -0.0007706669186 -1.327051594e-09)
(0.001763553574 -0.0007742918281 -1.158524803e-09)
(0.00102733522 -0.0005373356691 2.622745527e-07)
(0.001185629792 -0.0006175877359 4.119398685e-07)
(0.001343612478 -0.0006542501363 1.570229467e-07)
(0.001492109207 -0.0006567379154 1.608420882e-07)
(0.0004656931231 -0.0002488577733 4.035512744e-07)
(0.0005375932195 -0.0002850123758 3.714873751e-07)
(0.0006102314413 -0.0003008979179 6.899330645e-08)
(0.0006779751803 -0.0003010772428 2.493835168e-08)
(0.0001518630188 -0.0001855327967 -3.664668654e-06)
(0.0003660010842 -0.0003477230729 -2.380910293e-06)
(0.0001754353824 -0.0003802633458 1.376670809e-05)
(0.0005027024515 -0.0004458472028 -1.023835532e-06)
(0.0007449087901 -0.0004954286937 -6.35429318e-07)
(0.0005061999085 -0.0006217241045 5.092902216e-06)
(0.0008131735259 -0.0007359036226 1.097657035e-06)
(0.0002233950672 -0.0004681201818 4.41560598e-06)
(0.0006579678236 -0.0005674661835 -4.706617428e-07)
(0.0008823696616 -0.0005794904277 -1.098677457e-09)
(0.0006449951685 -0.000780719778 2.196885858e-06)
(0.0009603643838 -0.000858769197 -4.532744182e-08)
(0.0002073633368 -0.0004401219897 -1.118325719e-05)
(0.0006033439367 -0.0005254113434 -2.355984137e-06)
(0.0007451074285 -0.0004956846279 8.249987825e-07)
(0.0005959659056 -0.0007299968903 -4.989301649e-06)
(0.0008133886836 -0.0007360921775 -1.086661401e-06)
(0.0001230652882 -0.0002802263992 -9.596061699e-06)
(0.0003377506693 -0.000310572565 4.413951194e-06)
(0.0003337292449 -0.0002336731778 3.686762039e-06)
(0.000348904177 -0.000448596045 -5.42936395e-07)
(0.000365914198 -0.0003476545298 2.317632604e-06)
(7.643219963e-05 -0.0001547902572 2.499584822e-06)
(0.0001849223648 -0.0003483284474 1.079481655e-05)
(9.588615538e-05 -0.000163628071 5.180310507e-07)
(0.0001118183761 -0.0001582329453 -3.141475684e-07)
(0.0002343874686 -0.0003891081036 7.056967803e-06)
(0.0002966157164 -0.0004032855071 3.915845589e-06)
(0.0001295478409 -0.0003253047736 1.650318842e-05)
(0.0002607819907 -0.000470655961 1.375075179e-05)
(0.0001523323866 -0.0003736919353 1.252025287e-05)
(0.0003063239448 -0.0005446653714 1.058323015e-05)
(0.0003089181632 -0.0004414822028 1.06972681e-05)
(0.0003354159723 -0.000534101827 1.098202678e-05)
(0.0004275336153 -0.0005571194509 8.112932648e-06)
(0.0002073665921 -0.000440118155 1.117344453e-05)
(0.0003704495945 -0.0005177304168 8.507982267e-06)
(0.0003976700359 -0.0006243403541 8.997094613e-06)
(0.0005142097064 -0.0006599452751 6.478677268e-06)
(0.0001635890503 -0.0003962813088 4.727433011e-06)
(0.0003288016953 -0.0005792781169 4.083549484e-06)
(0.0001635886372 -0.0003962819628 -4.737065187e-06)
(0.0003288013333 -0.0005792777674 -4.098263057e-06)
(0.000401842611 -0.0005538969854 3.700973285e-06)
(0.000428885988 -0.0006661612337 3.636562922e-06)
(0.000555803018 -0.0007053831739 2.981303264e-06)
(0.000223395032 -0.0004681216695 -4.42419183e-06)
(0.00040184162 -0.0005538992096 -3.698915056e-06)
(0.0004288859725 -0.0006661622186 -3.652274698e-06)
(0.0005558010776 -0.000705387646 -2.989623737e-06)
(0.000152329805 -0.0003736938605 -1.253036824e-05)
(0.0003063215894 -0.0005446644699 -1.059911626e-05)
(0.000129542139 -0.0003253076008 -1.651245316e-05)
(0.0002607749593 -0.0004706556345 -1.376748499e-05)
(0.0003704343395 -0.000517738007 -8.511257018e-06)
(0.0003976657519 -0.0006243432134 -9.015810675e-06)
(0.0005141848301 -0.0006599614127 -6.493238163e-06)
(0.0001754258139 -0.0003802685692 -1.377631468e-05)
(0.0003088808971 -0.0004415061206 -1.070092685e-05)
(0.0003354005791 -0.0005341084541 -1.100614026e-05)
(0.0004274798015 -0.0005571605366 -8.143677613e-06)
(9.11657284e-05 -0.0002433580559 -1.390609503e-05)
(0.0001849096955 -0.0003483308168 -1.080570107e-05)
(3.604750286e-05 -0.0001095329537 -4.311323272e-06)
(7.642299019e-05 -0.0001547913875 -2.501948191e-06)
(0.0002108459727 -0.000317879885 -6.425716845e-06)
(0.0002343618682 -0.000389120618 -7.073617704e-06)
(0.0002965615923 -0.0004033290971 -3.941496636e-06)
(5.073321913e-05 -0.0001218519437 -1.335048066e-06)
(8.285961187e-05 -0.0001325155179 -1.027202658e-06)
(9.58666174e-05 -0.0001636348189 -5.235554356e-07)
(0.0001117749933 -0.0001582495375 2.987871817e-07)
(0.0001426672708 -0.0001610811678 5.789281717e-06)
(0.0001734867837 -0.0001669720594 -2.782582581e-06)
(0.0003428190038 -0.0003915107997 3.390712995e-06)
(0.0004009010024 -0.0003761114506 -3.130993344e-06)
(0.0001563738551 -0.0001832604372 -9.625472526e-06)
(0.0001931871415 -0.000207103804 -3.695841369e-06)
(0.0002027719559 -0.0002053320687 -1.591129592e-05)
(0.0003489409424 -0.0004485950234 5.20676678e-07)
(0.0003917130894 -0.0004648941132 -2.012222976e-06)
(0.0004495276873 -0.0004990059366 -4.186091355e-07)
(0.0004958381995 -0.0005121577275 -9.616759678e-06)
(0.0004103480124 -0.0004546503062 5.078068962e-06)
(0.0006030097426 -0.000525104025 2.388434538e-06)
(0.0004892620381 -0.0005332093412 4.275645042e-06)
(0.0005131285565 -0.0005535966045 5.977905301e-06)
(0.0006022785598 -0.0005438764558 -1.259264861e-06)
(0.0006108531357 -0.000655115286 2.492072787e-06)
(0.0007155121508 -0.0006383750734 -9.762445841e-09)
(0.0005689704944 -0.0006485399065 2.614744181e-06)
(0.0006516986466 -0.0006975998318 3.466302358e-06)
(0.0007186683459 -0.0007204249982 -3.851647578e-06)
(0.0005959641936 -0.0007299984039 4.966014147e-06)
(0.0006796138268 -0.0007684741139 5.384409779e-06)
(0.0007685385608 -0.0008205092943 3.43481077e-06)
(0.0008553468016 -0.0008538540135 1.274721071e-06)
(0.0005340386862 -0.0005745119811 2.133775203e-06)
(0.0006580424922 -0.0005675170699 4.591729545e-07)
(0.0005340330918 -0.0005745217845 -2.118006977e-06)
(0.0006660967028 -0.0007046561794 2.730676027e-06)
(0.000782098733 -0.0006911551826 -1.804832108e-07)
(0.0006660895592 -0.0007046748143 -2.741575255e-06)
(0.0007821725929 -0.0006912072831 1.468453123e-07)
(0.000736220566 -0.0008236640032 7.905696655e-07)
(0.0008316494125 -0.0008794373318 1.635194895e-06)
(0.0009263804366 -0.0009171595781 -8.035073699e-07)
(0.0006449960655 -0.0007807197067 -2.217000089e-06)
(0.0007362191526 -0.0008236681209 -8.104381155e-07)
(0.0008316506354 -0.0008794366742 -1.655720524e-06)
(0.0009263810443 -0.0009171615487 7.797566545e-07)
(0.0004892610087 -0.000533283874 -4.265899891e-06)
(0.0005034267044 -0.000446599909 1.233770748e-06)
(0.0004104021909 -0.0004548716374 -5.015812676e-06)
(0.0006108630727 -0.0006552320063 -2.494121783e-06)
(0.0007158796225 -0.000638711305 5.071866179e-08)
(0.0005132031191 -0.0005538873202 -5.960609009e-06)
(0.000603215142 -0.0005446882755 1.439914778e-06)
(0.0006795765247 -0.0007684833065 -5.406294076e-06)
(0.0007685411394 -0.0008205049579 -3.458119054e-06)
(0.0008553257785 -0.0008538560065 -1.299737593e-06)
(0.0005061889204 -0.0006217221355 -5.121396614e-06)
(0.0005689098328 -0.0006485554327 -2.650653239e-06)
(0.0006516901014 -0.0006975903625 -3.493441016e-06)
(0.000718623266 -0.0007204198267 3.815831471e-06)
(0.0002736308116 -0.0003187893738 -1.311460844e-06)
(0.0001377099708 -0.000135080818 9.952377471e-06)
(0.0001153169941 -0.0001386873014 1.707177731e-06)
(0.000342812825 -0.000391633164 -3.39531597e-06)
(0.0004011035902 -0.0003762313744 3.139079399e-06)
(0.00014258366 -0.0001610771657 -5.816309873e-06)
(0.000173514795 -0.0001669151341 2.715823306e-06)
(0.000391639459 -0.0004649066428 1.966756044e-06)
(0.0004494925255 -0.0004989954975 3.986116912e-07)
(0.0004957744074 -0.0005121490728 9.573781756e-06)
(0.0001518400356 -0.0001855318897 3.658870941e-06)
(0.0001563255248 -0.000183268984 9.602262495e-06)
(0.0001931678746 -0.0002070975094 3.691625833e-06)
(0.0002027361173 -0.0002053265891 1.589300615e-05)
(0.0007945133572 -0.0003820875671 -8.787009425e-08)
(0.000761823075 -0.0003354586427 -1.007022231e-07)
(0.001739996301 -0.0008252396854 1.421080733e-08)
(0.001673211793 -0.0007294666004 -2.334398321e-07)
(0.002053386568 -0.0009700912446 -2.180303258e-09)
(0.001976174176 -0.0008591751729 -1.37314532e-09)
(0.001739995757 -0.000825237694 -1.877071288e-08)
(0.001673211931 -0.0007294656087 2.305728818e-07)
(0.0007945131684 -0.0003820834385 8.667610795e-08)
(0.0007618238691 -0.0003354563246 9.970636537e-08)
(7.459849643e-05 -0.0001001399569 -2.317009481e-07)
(9.00873953e-05 -8.954823306e-05 1.62124394e-06)
(0.0001059432764 -9.824185932e-05 2.537997902e-06)
(0.0001306160842 -0.0001076778587 1.406657688e-06)
(0.0002098156816 -0.0002821407329 4.483756735e-06)
(0.0003529401973 -0.0002850567562 1.459780897e-05)
(0.000254703462 -0.0003420609257 1.644930078e-06)
(0.0002432317239 -0.0002761644327 1.63308965e-06)
(0.0002668958254 -0.0002756387351 1.731143911e-06)
(0.0004216594598 -0.0003399069777 4.001674501e-06)
(0.0002400778223 -0.0003229591424 -3.793601839e-06)
(0.0002298362006 -0.0002615797501 -4.072660112e-06)
(0.0002524666672 -0.0002611323973 -4.454152081e-06)
(0.0003999779165 -0.0003225665462 -1.107088097e-05)
(0.0001574960717 -0.000213298381 -2.04164775e-06)
(0.0001877042894 -0.0001837395629 -6.528441586e-06)
(0.0002200888953 -0.0002006166102 -9.972077368e-06)
(0.0002718402517 -0.0002202256377 -1.275037609e-05)
(7.210630638e-05 -8.520616832e-05 1.896086316e-06)
(8.054514648e-05 -8.565440007e-05 1.143684206e-06)
(0.0001575010031 -0.0002133024187 2.037010715e-06)
(0.0001527259052 -0.00017670344 3.99297762e-06)
(0.0001877040538 -0.0001837428184 6.527508672e-06)
(0.0001687383342 -0.0001764711036 4.442945993e-06)
(0.0002718396362 -0.0002202249209 1.275089505e-05)
(0.0002200873943 -0.0002006172533 9.971929375e-06)
(0.0002014073867 -0.0002301081428 5.308200852e-06)
(0.0002216041605 -0.0002298505351 5.613955823e-06)
(0.0002400794131 -0.0003229620943 3.78571622e-06)
(0.0002298370561 -0.0002615815551 4.068163604e-06)
(0.0002460426516 -0.0002392413546 8.034175642e-06)
(0.0002873417415 -0.0002604511081 1.18353653e-05)
(0.0002798439119 -0.0002714915757 6.260009638e-06)
(0.0002524690443 -0.0002611370252 4.450745792e-06)
(0.0003999788898 -0.0003225661595 1.10723995e-05)
(0.0003261963701 -0.0002949891924 9.009525507e-06)
(0.0002547029613 -0.0003420599897 -1.652320564e-06)
(0.0002432315242 -0.0002761641256 -1.637601741e-06)
(0.0002956499567 -0.0002864703609 2.358614282e-06)
(0.0003442563776 -0.0003110088964 3.311802101e-06)
(0.0002956498406 -0.0002864696826 -2.361909142e-06)